 &FCI NORB= 18,NELEC=  6,MS2= 2,
  ORBSYM=1,1,1,1,1,1,1,1,1,2,2,2,2,3,3,3,3,4,
  ISYM=4,
 /
  0.7321873287197146E+00   1   1   1   1
 -0.4209799050806171E-01   2   1   1   1
  0.5051027492440481E-01   2   1   2   1
  0.5184619350616095E+00   2   2   1   1
  0.7127042084757276E-01   2   2   2   1
  0.7277597884460776E+00   2   2   2   2
  0.3347663613869955E-01   3   1   1   1
 -0.4346842257430446E-01   3   1   2   1
 -0.4833733167355138E-01   3   1   2   2
  0.4128320398006753E-01   3   1   3   1
 -0.1634077946643531E+00   3   2   1   1
  0.1081141178800195E-02   3   2   2   1
 -0.3680976823628924E-01   3   2   2   2
  0.7271242020993857E-02   3   2   3   1
  0.1894839748994555E+00   3   2   3   2
  0.5251889811679560E+00   3   3   1   1
  0.5717175090241722E-01   3   3   2   1
  0.7050443769858956E+00   3   3   2   2
 -0.4408711724829817E-01   3   3   3   1
 -0.2124118569134675E-01   3   3   3   2
  0.7379605983502378E+00   3   3   3   3
  0.3018266646101256E-01   4   1   1   1
 -0.4672616140214060E-02   4   1   2   1
  0.2217212874458373E-01   4   1   2   2
  0.5412597765752322E-02   4   1   3   1
 -0.8071826297328472E-02   4   1   3   2
  0.2386040478718100E-01   4   1   3   3
  0.4807044009757447E-02   4   1   4   1
  0.1180410205804266E-01   4   2   1   1
  0.1719968623696543E-01   4   2   2   1
  0.8757699467779095E-01   4   2   2   2
 -0.1033782891091497E-01   4   2   3   1
  0.2890400668292529E-01   4   2   3   2
  0.8080455669425607E-01   4   2   3   3
  0.8198807275280988E-03   4   2   4   1
  0.3359525171433565E-01   4   2   4   2
  0.4686661311402102E-01   4   3   1   1
  0.4143072807438884E-02   4   3   2   1
  0.8543059148027585E-01   4   3   2   2
  0.1748943997509876E-03   4   3   3   1
  0.2310835769021080E-01   4   3   3   2
  0.9309181482019664E-01   4   3   3   3
  0.3902440939047005E-02   4   3   4   1
  0.2975660473917820E-01   4   3   4   2
  0.3546825916725405E-01   4   3   4   3
  0.2595573996464910E+00   4   4   1   1
  0.2145595704574029E-01   4   4   2   1
  0.3643480118587275E+00   4   4   2   2
 -0.1401568196242475E-01   4   4   3   1
  0.5615911120706095E-01   4   4   3   2
  0.3768276667799761E+00   4   4   3   3
  0.7388812917304331E-02   4   4   4   1
  0.1984131608463013E-01   4   4   4   2
  0.1844126605802343E-01   4   4   4   3
  0.3336983597762878E+00   4   4   4   4
  0.9469743086364261E-01   5   1   1   1
 -0.1903898357701030E-02   5   1   2   1
  0.5773184248331619E-01   5   1   2   2
  0.3040785193200616E-02   5   1   3   1
 -0.3027052054131244E-01   5   1   3   2
  0.6826045694934514E-01   5   1   3   3
  0.1156657944855103E-01   5   1   4   1
 -0.3553552483636504E-02   5   1   4   2
  0.9271238388955161E-02   5   1   4   3
  0.1854233988509274E-01   5   1   4   4
  0.5752789206997073E-01   5   1   5   1
 -0.5688794236362481E-01   5   2   1   1
 -0.1730432380233877E-01   5   2   2   1
 -0.1188175240876091E+00   5   2   2   2
  0.1083900611766154E-01   5   2   3   1
  0.1489463148211819E-01   5   2   3   2
 -0.1211120309267135E+00   5   2   3   3
 -0.9496042159074548E-02   5   2   4   1
 -0.2516180631869963E-01   5   2   4   2
 -0.2627318779261019E-01   5   2   4   3
 -0.3112667630701689E-01   5   2   4   4
 -0.2684200543358329E-01   5   2   5   1
  0.5001819160255102E-01   5   2   5   2
  0.6099458589104435E-01   5   3   1   1
 -0.1971444763278389E-03   5   3   2   1
  0.2993097281238449E-01   5   3   2   2
 -0.7952314072949968E-03   5   3   3   1
 -0.6538788225124820E-01   5   3   3   2
  0.3289346745014485E-01   5   3   3   3
  0.6913944227678635E-02   5   3   4   1
 -0.1386132627225198E-01   5   3   4   2
 -0.8754593231457840E-02   5   3   4   3
 -0.5274374880019028E-02   5   3   4   4
  0.2717051881857666E-01   5   3   5   1
 -0.1592174591293892E-01   5   3   5   2
  0.3732150715603133E-01   5   3   5   3
  0.1879717559139215E-01   5   4   1   1
 -0.1950890121133969E-01   5   4   2   1
 -0.5229940449146388E-01   5   4   2   2
  0.1345518948832008E-01   5   4   3   1
 -0.3181463238701566E-01   5   4   3   2
 -0.4840865350082982E-01   5   4   3   3
  0.2887785859702393E-03   5   4   4   1
 -0.1646100245657982E-01   5   4   4   2
 -0.1312202799652401E-01   5   4   4   3
 -0.2922931787590497E-01   5   4   4   4
 -0.2362765871590513E-02   5   4   5   1
  0.1409037306877416E-01   5   4   5   2
  0.8727370527212848E-02   5   4   5   3
  0.1933919014716946E-01   5   4   5   4
  0.5208564357199599E+00   5   5   1   1
 -0.2494659669225796E-01   5   5   2   1
  0.4350366363745845E+00   5   5   2   2
  0.2287032007581133E-01   5   5   3   1
 -0.8258000876660979E-01   5   5   3   2
  0.4324645415325046E+00   5   5   3   3
  0.1293268066092162E-01   5   5   4   1
  0.2390969074217209E-01   5   5   4   2
  0.3914014791502685E-01   5   5   4   3
  0.2480675170084090E+00   5   5   4   4
  0.2117880027261745E-01   5   5   5   1
 -0.3035110752578768E-01   5   5   5   2
  0.2267337182610846E-01   5   5   5   3
  0.1227478715649744E-01   5   5   5   4
  0.4635797280316716E+00   5   5   5   5
 -0.1380857990731358E+00   6   1   1   1
  0.1538082167023679E-01   6   1   2   1
 -0.7753762359366512E-01   6   1   2   2
 -0.1300202638585266E-01   6   1   3   1
  0.6123449252881594E-01   6   1   3   2
 -0.9178638555776582E-01   6   1   3   3
 -0.1637235100590366E-01   6   1   4   1
  0.1929280667808132E-03   6   1   4   2
 -0.1372488615136339E-01   6   1   4   3
 -0.7326610323111687E-02   6   1   4   4
 -0.4689580041599178E-01   6   1   5   1
  0.3482393945550551E-01   6   1   5   2
 -0.3389280978410246E-01   6   1   5   3
 -0.8405966092496768E-02   6   1   5   4
 -0.6690476346370698E-01   6   1   5   5
  0.7373119089685140E-01   6   1   6   1
  0.8742862487275399E-02   6   2   1   1
 -0.2171990759283594E-01   6   2   2   1
 -0.4825180447120445E-01   6   2   2   2
  0.2144209333929480E-01   6   2   3   1
  0.1191484375053203E-01   6   2   3   2
 -0.4891666748787823E-01   6   2   3   3
  0.8747991658114296E-03   6   2   4   1
 -0.1436299241856043E-01   6   2   4   2
 -0.6399053797306358E-02   6   2   4   3
 -0.1023788799989054E-01   6   2   4   4
  0.9750633361315092E-02   6   2   5   1
  0.2033417350614339E-01   6   2   5   2
 -0.1629739664032690E-02   6   2   5   3
  0.6711205719975744E-02   6   2   5   4
 -0.3152932993447232E-02   6   2   5   5
  0.2048921613218815E-02   6   2   6   1
  0.2694384990220811E-01   6   2   6   2
  0.1158591212949086E-01   6   3   1   1
  0.2536992399204652E-01   6   3   2   1
  0.4586281625507235E-01   6   3   2   2
 -0.2554957728068940E-01   6   3   3   1
 -0.3908413820762596E-01   6   3   3   2
  0.3996578231346874E-01   6   3   3   3
 -0.2273782847839800E-02   6   3   4   1
  0.4106724861267282E-02   6   3   4   2
 -0.1919564071980528E-02   6   3   4   3
 -0.4056691133942190E-02   6   3   4   4
 -0.3717037396638171E-02   6   3   5   1
 -0.9730214459139470E-02   6   3   5   2
  0.1307538146651366E-01   6   3   5   3
 -0.2544362528673676E-02   6   3   5   4
  0.1053872392424077E-01   6   3   5   5
 -0.3339542270224795E-02   6   3   6   1
 -0.1833588566098297E-01   6   3   6   2
  0.2780880575181136E-01   6   3   6   3
 -0.7128611527949451E-01   6   4   1   1
  0.3446648170694052E-02   6   4   2   1
 -0.4890163564740797E-01   6   4   2   2
 -0.4817964512012850E-02   6   4   3   1
  0.2261871904765742E-01   6   4   3   2
 -0.4142995306065748E-01   6   4   3   3
 -0.1567874049833692E-02   6   4   4   1
 -0.9875000959731255E-02   6   4   4   2
 -0.1524456420468574E-01   6   4   4   3
  0.1137289940266121E-01   6   4   4   4
 -0.8908858756768695E-02   6   4   5   1
  0.8460669365583404E-02   6   4   5   2
 -0.4853993811556094E-02   6   4   5   3
  0.6720364682063912E-03   6   4   5   4
 -0.5191805299912348E-01   6   4   5   5
  0.1258669012582622E-01   6   4   6   1
 -0.2631634844655756E-02   6   4   6   2
 -0.3661619289325957E-02   6   4   6   3
  0.2383523579289312E-01   6   4   6   4
 -0.8052656693311219E-01   6   5   1   1
  0.3761742396842693E-01   6   5   2   1
  0.3263386271992230E-01   6   5   2   2
 -0.2975426186784054E-01   6   5   3   1
  0.3435559072668918E-01   6   5   3   2
  0.2076915541303964E-01   6   5   3   3
 -0.5995796420780687E-02   6   5   4   1
  0.1306468256956193E-01   6   5   4   2
  0.1503684474704826E-02   6   5   4   3
  0.2591504343807904E-01   6   5   4   4
 -0.1260502313926538E-01   6   5   5   1
 -0.5278525345510467E-02   6   5   5   2
 -0.1158553417560949E-01   6   5   5   3
 -0.2234557984806839E-01   6   5   5   4
 -0.4686252753238581E-01   6   5   5   5
  0.3240274455947766E-01   6   5   6   1
 -0.1149575329181668E-01   6   5   6   2
  0.1161794833302236E-01   6   5   6   3
  0.8635486224080988E-02   6   5   6   4
  0.4410421097588495E-01   6   5   6   5
  0.5187824557235107E+00   6   6   1   1
  0.9704061406019558E-02   6   6   2   1
  0.4797059016574364E+00   6   6   2   2
 -0.6812802221842260E-02   6   6   3   1
 -0.8423666596767346E-01   6   6   3   2
  0.4757358473251604E+00   6   6   3   3
  0.1488517490316407E-01   6   6   4   1
  0.1883875504339960E-01   6   6   4   2
  0.3429109728512769E-01   6   6   4   3
  0.2857168565045030E+00   6   6   4   4
  0.6424619093149905E-01   6   6   5   1
 -0.4756379629959577E-01   6   6   5   2
  0.3871808166653579E-01   6   6   5   3
 -0.8777014007254724E-02   6   6   5   4
  0.4023880610730788E+00   6   6   5   5
 -0.6509857226264648E-01   6   6   6   1
 -0.9313605500383959E-03   6   6   6   2
  0.1900051013531456E-01   6   6   6   3
 -0.4672364568588133E-01   6   6   6   4
 -0.1522099008485145E-01   6   6   6   5
  0.4478262061305056E+00   6   6   6   6
  0.0000000000000000E+00   7   1   1   1
  0.0000000000000000E+00   7   1   2   1
  0.0000000000000000E+00   7   1   2   2
  0.0000000000000000E+00   7   1   3   1
  0.0000000000000000E+00   7   1   3   2
  0.0000000000000000E+00   7   1   3   3
  0.0000000000000000E+00   7   1   4   1
  0.0000000000000000E+00   7   1   4   2
  0.0000000000000000E+00   7   1   4   3
  0.0000000000000000E+00   7   1   4   4
  0.0000000000000000E+00   7   1   5   1
  0.0000000000000000E+00   7   1   5   2
  0.0000000000000000E+00   7   1   5   3
  0.0000000000000000E+00   7   1   5   4
  0.0000000000000000E+00   7   1   5   5
  0.0000000000000000E+00   7   1   6   1
  0.0000000000000000E+00   7   1   6   2
  0.0000000000000000E+00   7   1   6   3
  0.0000000000000000E+00   7   1   6   4
  0.0000000000000000E+00   7   1   6   5
  0.0000000000000000E+00   7   1   6   6
  0.6005322848155606E-01   7   1   7   1
  0.0000000000000000E+00   7   2   1   1
  0.0000000000000000E+00   7   2   2   1
  0.0000000000000000E+00   7   2   2   2
  0.0000000000000000E+00   7   2   3   1
  0.0000000000000000E+00   7   2   3   2
  0.0000000000000000E+00   7   2   3   3
  0.0000000000000000E+00   7   2   4   1
  0.0000000000000000E+00   7   2   4   2
  0.0000000000000000E+00   7   2   4   3
  0.0000000000000000E+00   7   2   4   4
  0.0000000000000000E+00   7   2   5   1
  0.0000000000000000E+00   7   2   5   2
  0.0000000000000000E+00   7   2   5   3
  0.0000000000000000E+00   7   2   5   4
  0.0000000000000000E+00   7   2   5   5
  0.0000000000000000E+00   7   2   6   1
  0.0000000000000000E+00   7   2   6   2
  0.0000000000000000E+00   7   2   6   3
  0.0000000000000000E+00   7   2   6   4
  0.0000000000000000E+00   7   2   6   5
  0.0000000000000000E+00   7   2   6   6
  0.1053541132189530E-01   7   2   7   1
  0.1242464695393215E-01   7   2   7   2
  0.0000000000000000E+00   7   3   1   1
  0.0000000000000000E+00   7   3   2   1
  0.0000000000000000E+00   7   3   2   2
  0.0000000000000000E+00   7   3   3   1
  0.0000000000000000E+00   7   3   3   2
  0.0000000000000000E+00   7   3   3   3
  0.0000000000000000E+00   7   3   4   1
  0.0000000000000000E+00   7   3   4   2
  0.0000000000000000E+00   7   3   4   3
  0.0000000000000000E+00   7   3   4   4
  0.0000000000000000E+00   7   3   5   1
  0.0000000000000000E+00   7   3   5   2
  0.0000000000000000E+00   7   3   5   3
  0.0000000000000000E+00   7   3   5   4
  0.0000000000000000E+00   7   3   5   5
  0.0000000000000000E+00   7   3   6   1
  0.0000000000000000E+00   7   3   6   2
  0.0000000000000000E+00   7   3   6   3
  0.0000000000000000E+00   7   3   6   4
  0.0000000000000000E+00   7   3   6   5
  0.0000000000000000E+00   7   3   6   6
 -0.1356241887389854E-01   7   3   7   1
 -0.1007608568429099E-01   7   3   7   2
  0.1023147592277056E-01   7   3   7   3
  0.0000000000000000E+00   7   4   1   1
  0.0000000000000000E+00   7   4   2   1
  0.0000000000000000E+00   7   4   2   2
  0.0000000000000000E+00   7   4   3   1
  0.0000000000000000E+00   7   4   3   2
  0.0000000000000000E+00   7   4   3   3
  0.0000000000000000E+00   7   4   4   1
  0.0000000000000000E+00   7   4   4   2
  0.0000000000000000E+00   7   4   4   3
  0.0000000000000000E+00   7   4   4   4
  0.0000000000000000E+00   7   4   5   1
  0.0000000000000000E+00   7   4   5   2
  0.0000000000000000E+00   7   4   5   3
  0.0000000000000000E+00   7   4   5   4
  0.0000000000000000E+00   7   4   5   5
  0.0000000000000000E+00   7   4   6   1
  0.0000000000000000E+00   7   4   6   2
  0.0000000000000000E+00   7   4   6   3
  0.0000000000000000E+00   7   4   6   4
  0.0000000000000000E+00   7   4   6   5
  0.0000000000000000E+00   7   4   6   6
 -0.2230657124970906E-02   7   4   7   1
 -0.6756929852150305E-03   7   4   7   2
  0.8305370626176101E-03   7   4   7   3
  0.4786568928348664E-03   7   4   7   4
  0.0000000000000000E+00   7   5   1   1
  0.0000000000000000E+00   7   5   2   1
  0.0000000000000000E+00   7   5   2   2
  0.0000000000000000E+00   7   5   3   1
  0.0000000000000000E+00   7   5   3   2
  0.0000000000000000E+00   7   5   3   3
  0.0000000000000000E+00   7   5   4   1
  0.0000000000000000E+00   7   5   4   2
  0.0000000000000000E+00   7   5   4   3
  0.0000000000000000E+00   7   5   4   4
  0.0000000000000000E+00   7   5   5   1
  0.0000000000000000E+00   7   5   5   2
  0.0000000000000000E+00   7   5   5   3
  0.0000000000000000E+00   7   5   5   4
  0.0000000000000000E+00   7   5   5   5
  0.0000000000000000E+00   7   5   6   1
  0.0000000000000000E+00   7   5   6   2
  0.0000000000000000E+00   7   5   6   3
  0.0000000000000000E+00   7   5   6   4
  0.0000000000000000E+00   7   5   6   5
  0.0000000000000000E+00   7   5   6   6
  0.1650114831011550E-01   7   5   7   1
  0.4695090613279462E-02   7   5   7   2
 -0.4802539064989821E-02   7   5   7   3
 -0.6090123564232441E-03   7   5   7   4
  0.7667769077165439E-02   7   5   7   5
  0.0000000000000000E+00   7   6   1   1
  0.0000000000000000E+00   7   6   2   1
  0.0000000000000000E+00   7   6   2   2
  0.0000000000000000E+00   7   6   3   1
  0.0000000000000000E+00   7   6   3   2
  0.0000000000000000E+00   7   6   3   3
  0.0000000000000000E+00   7   6   4   1
  0.0000000000000000E+00   7   6   4   2
  0.0000000000000000E+00   7   6   4   3
  0.0000000000000000E+00   7   6   4   4
  0.0000000000000000E+00   7   6   5   1
  0.0000000000000000E+00   7   6   5   2
  0.0000000000000000E+00   7   6   5   3
  0.0000000000000000E+00   7   6   5   4
  0.0000000000000000E+00   7   6   5   5
  0.0000000000000000E+00   7   6   6   1
  0.0000000000000000E+00   7   6   6   2
  0.0000000000000000E+00   7   6   6   3
  0.0000000000000000E+00   7   6   6   4
  0.0000000000000000E+00   7   6   6   5
  0.0000000000000000E+00   7   6   6   6
  0.7807188250126613E-02   7   6   7   1
  0.3822667725191156E-02   7   6   7   2
 -0.1668892636475633E-02   7   6   7   3
 -0.2248639490934090E-02   7   6   7   4
  0.2030511895934642E-02   7   6   7   5
  0.1664292224303217E-01   7   6   7   6
  0.6453124270234313E+00   7   7   1   1
  0.1589918461808609E-01   7   7   2   1
  0.5374993311119565E+00   7   7   2   2
 -0.1980692680699828E-01   7   7   3   1
 -0.1325745228142234E+00   7   7   3   2
  0.5266501017036255E+00   7   7   3   3
  0.1556848807271313E-01   7   7   4   1
  0.2330370451045344E-01   7   7   4   2
  0.4178201458260511E-01   7   7   4   3
  0.2756220598291700E+00   7   7   4   4
  0.8323275846678349E-01   7   7   5   1
 -0.4886573465808842E-01   7   7   5   2
  0.4125786920770969E-01   7   7   5   3
 -0.4041945151367021E-02   7   7   5   4
  0.4582946573061155E+00   7   7   5   5
 -0.8163977511635800E-01   7   7   6   1
 -0.3506604116912851E-02   7   7   6   2
  0.3077124317735258E-01   7   7   6   3
 -0.6283193464015163E-01   7   7   6   4
 -0.2852373544538556E-01   7   7   6   5
  0.5100425303295089E+00   7   7   6   6
  0.0000000000000000E+00   7   7   7   1
  0.0000000000000000E+00   7   7   7   2
  0.0000000000000000E+00   7   7   7   3
  0.0000000000000000E+00   7   7   7   4
  0.0000000000000000E+00   7   7   7   5
  0.0000000000000000E+00   7   7   7   6
  0.6951240147580665E+00   7   7   7   7
 -0.4434729737381149E-02   8   1   1   1
  0.1859644809855309E-01   8   1   2   1
 -0.7409910807839896E-02   8   1   2   2
 -0.2303923453121397E-01   8   1   3   1
 -0.1214817330182655E-01   8   1   3   2
 -0.3151144302886543E-02   8   1   3   3
 -0.5867676519624849E-02   8   1   4   1
 -0.2324165116394556E-02   8   1   4   2
 -0.5207988373025583E-02   8   1   4   3
 -0.5951798589795052E-02   8   1   4   4
  0.3437757998365574E-02   8   1   5   1
  0.4455657582643163E-02   8   1   5   2
 -0.4119431788015028E-03   8   1   5   3
 -0.1187180154513166E-02   8   1   5   4
 -0.1281508036417596E-01   8   1   5   5
  0.8587043662699190E-02   8   1   6   1
 -0.7400508199214041E-02   8   1   6   2
  0.1371443865281851E-01   8   1   6   3
  0.1113803866213951E-02   8   1   6   4
  0.7297212452738925E-02   8   1   6   5
  0.6249364886217136E-02   8   1   6   6
  0.0000000000000000E+00   8   1   7   1
  0.0000000000000000E+00   8   1   7   2
  0.0000000000000000E+00   8   1   7   3
  0.0000000000000000E+00   8   1   7   4
  0.0000000000000000E+00   8   1   7   5
  0.0000000000000000E+00   8   1   7   6
  0.3518112470443242E-01   8   1   7   7
  0.2834302778581198E-01   8   1   8   1
  0.3324019576134738E-01   8   2   1   1
 -0.3366106235886536E-01   8   2   2   1
 -0.6798476608345799E-01   8   2   2   2
  0.1860853872784960E-01   8   2   3   1
 -0.6188034260333444E-02   8   2   3   2
 -0.9943728336687630E-02   8   2   3   3
  0.2332982388579978E-02   8   2   4   1
 -0.2502343383345634E-01   8   2   4   2
 -0.5431081540767817E-02   8   2   4   3
 -0.7076612427730281E-02   8   2   4   4
  0.1194537105860738E-01   8   2   5   1
  0.1675943142072143E-01   8   2   5   2
  0.8319944582966317E-02   8   2   5   3
  0.1808493828534723E-01   8   2   5   4
  0.6364773401175931E-02   8   2   5   5
 -0.1865254414487396E-01   8   2   6   1
  0.1301653286521891E-01   8   2   6   2
 -0.1253209596660175E-01   8   2   6   3
  0.6391322083377469E-02   8   2   6   4
 -0.2890739006190182E-01   8   2   6   5
 -0.2758305585671644E-02   8   2   6   6
  0.0000000000000000E+00   8   2   7   1
  0.0000000000000000E+00   8   2   7   2
  0.0000000000000000E+00   8   2   7   3
  0.0000000000000000E+00   8   2   7   4
  0.0000000000000000E+00   8   2   7   5
  0.0000000000000000E+00   8   2   7   6
 -0.3475132717707386E-03   8   2   7   7
  0.9897642150231301E-03   8   2   8   1
  0.7885744611318725E-01   8   2   8   2
 -0.1225105935555210E+00   8   3   1   1
  0.1115198220205221E-01   8   3   2   1
 -0.2046067864338402E-01   8   3   2   2
 -0.9156918396663355E-02   8   3   3   1
  0.1067957737778406E+00   8   3   3   2
  0.1710471694444688E-02   8   3   3   3
 -0.6915847236821754E-02   8   3   4   1
  0.1237618233527547E-01   8   3   4   2
  0.4684660918558972E-02   8   3   4   3
  0.3921495996802194E-01   8   3   4   4
 -0.2567641855281567E-01   8   3   5   1
  0.9684291715151019E-02   8   3   5   2
 -0.3250617145501208E-01   8   3   5   3
 -0.1741313316329541E-01   8   3   5   4
 -0.6551466834598424E-01   8   3   5   5
  0.4337529645810613E-01   8   3   6   1
 -0.3432778129595429E-02   8   3   6   2
 -0.1439008093748111E-01   8   3   6   3
  0.2307044598385496E-01   8   3   6   4
  0.2880503133311627E-01   8   3   6   5
 -0.5956803799746115E-01   8   3   6   6
  0.0000000000000000E+00   8   3   7   1
  0.0000000000000000E+00   8   3   7   2
  0.0000000000000000E+00   8   3   7   3
  0.0000000000000000E+00   8   3   7   4
  0.0000000000000000E+00   8   3   7   5
  0.0000000000000000E+00   8   3   7   6
 -0.9307772947512824E-01   8   3   7   7
 -0.5331851560665173E-02   8   3   8   1
  0.1304183770048863E-01   8   3   8   2
  0.1041021423201532E+00   8   3   8   3
 -0.4487474369600353E-01   8   4   1   1
 -0.2393392635068592E-02   8   4   2   1
 -0.4736006499407549E-01   8   4   2   2
 -0.5302252994133158E-03   8   4   3   1
  0.2116723233417015E-01   8   4   3   2
 -0.3277373059093156E-01   8   4   3   3
 -0.3801665980801638E-02   8   4   4   1
 -0.6721343312644491E-02   8   4   4   2
 -0.4310508293377036E-02   8   4   4   3
 -0.2480941519546065E-02   8   4   4   4
 -0.6472711553647648E-02   8   4   5   1
  0.1338138139704542E-01   8   4   5   2
 -0.6974661505772788E-02   8   4   5   3
  0.4013619384539424E-04   8   4   5   4
 -0.3095777591281803E-01   8   4   5   5
  0.1359769125676447E-01   8   4   6   1
  0.4779347895700334E-02   8   4   6   2
 -0.3833900731092299E-02   8   4   6   3
  0.7793394198084665E-02   8   4   6   4
  0.3741624966099692E-02   8   4   6   5
 -0.2852841803451840E-01   8   4   6   6
  0.0000000000000000E+00   8   4   7   1
  0.0000000000000000E+00   8   4   7   2
  0.0000000000000000E+00   8   4   7   3
  0.0000000000000000E+00   8   4   7   4
  0.0000000000000000E+00   8   4   7   5
  0.0000000000000000E+00   8   4   7   6
 -0.3796721904639418E-01   8   4   7   7
  0.3571703847487740E-02   8   4   8   1
  0.1677983661556792E-01   8   4   8   2
  0.2134105005604556E-01   8   4   8   3
  0.1403656612569544E-01   8   4   8   4
 -0.3533860778028941E-02   8   5   1   1
  0.1207723510870900E-01   8   5   2   1
  0.2789506828404695E-01   8   5   2   2
 -0.9715807723035043E-02   8   5   3   1
  0.6709997257816017E-02   8   5   3   2
  0.1196492269065411E-01   8   5   3   3
 -0.1461591637748979E-02   8   5   4   1
  0.1142654709558973E-01   8   5   4   2
  0.3387851947167099E-02   8   5   4   3
  0.5901318589268767E-02   8   5   4   4
 -0.8876443078232087E-02   8   5   5   1
 -0.4898033968635038E-02   8   5   5   2
 -0.9386636745119886E-02   8   5   5   3
 -0.6915736732886740E-02   8   5   5   4
  0.1375321402345571E-02   8   5   5   5
  0.7586837818318346E-02   8   5   6   1
 -0.9844911367955927E-02   8   5   6   2
  0.5236027628297852E-02   8   5   6   3
 -0.6787333411153590E-03   8   5   6   4
  0.9922925069656256E-02   8   5   6   5
  0.1364012662232236E-02   8   5   6   6
  0.0000000000000000E+00   8   5   7   1
  0.0000000000000000E+00   8   5   7   2
  0.0000000000000000E+00   8   5   7   3
  0.0000000000000000E+00   8   5   7   4
  0.0000000000000000E+00   8   5   7   5
  0.0000000000000000E+00   8   5   7   6
  0.1318256927406581E-01   8   5   7   7
  0.3854673005525559E-02   8   5   8   1
 -0.2207377547877266E-01   8   5   8   2
  0.2472460180244602E-02   8   5   8   3
 -0.5949666000339285E-02   8   5   8   4
  0.1389234978411407E-01   8   5   8   5
  0.1896855572849617E-01   8   6   1   1
 -0.1406718371771714E-01   8   6   2   1
 -0.5235239865074044E-02   8   6   2   2
  0.1503008131288485E-01   8   6   3   1
 -0.6052330973709836E-02   8   6   3   2
 -0.1225660502908208E-01   8   6   3   3
  0.2879822298607250E-02   8   6   4   1
  0.6540080255370700E-03   8   6   4   2
  0.2410959744541617E-02   8   6   4   3
 -0.7565608988908508E-02   8   6   4   4
  0.1111514193866601E-02   8   6   5   1
 -0.3391380530253283E-02   8   6   5   2
  0.1017331997924333E-02   8   6   5   3
  0.4235075674683511E-02   8   6   5   4
  0.1240393933244727E-01   8   6   5   5
 -0.5245231637852820E-02   8   6   6   1
  0.3577725099176813E-02   8   6   6   2
 -0.9086599686670287E-02   8   6   6   3
 -0.4921556447479547E-02   8   6   6   4
 -0.1049087445897149E-01   8   6   6   5
  0.1965474489309299E-02   8   6   6   6
  0.0000000000000000E+00   8   6   7   1
  0.0000000000000000E+00   8   6   7   2
  0.0000000000000000E+00   8   6   7   3
  0.0000000000000000E+00   8   6   7   4
  0.0000000000000000E+00   8   6   7   5
  0.0000000000000000E+00   8   6   7   6
  0.1323932513102477E-02   8   6   7   7
 -0.1084106235441970E-01   8   6   8   1
 -0.3313597209350558E-02   8   6   8   2
 -0.8874820009522355E-02   8   6   8   3
 -0.4770837225946276E-02   8   6   8   4
  0.6618504730280771E-03   8   6   8   5
  0.1289695081605757E-01   8   6   8   6
  0.0000000000000000E+00   8   7   1   1
  0.0000000000000000E+00   8   7   2   1
  0.0000000000000000E+00   8   7   2   2
  0.0000000000000000E+00   8   7   3   1
  0.0000000000000000E+00   8   7   3   2
  0.0000000000000000E+00   8   7   3   3
  0.0000000000000000E+00   8   7   4   1
  0.0000000000000000E+00   8   7   4   2
  0.0000000000000000E+00   8   7   4   3
  0.0000000000000000E+00   8   7   4   4
  0.0000000000000000E+00   8   7   5   1
  0.0000000000000000E+00   8   7   5   2
  0.0000000000000000E+00   8   7   5   3
  0.0000000000000000E+00   8   7   5   4
  0.0000000000000000E+00   8   7   5   5
  0.0000000000000000E+00   8   7   6   1
  0.0000000000000000E+00   8   7   6   2
  0.0000000000000000E+00   8   7   6   3
  0.0000000000000000E+00   8   7   6   4
  0.0000000000000000E+00   8   7   6   5
  0.0000000000000000E+00   8   7   6   6
  0.2542766029478649E-01   8   7   7   1
  0.4903979185560395E-02   8   7   7   2
 -0.8293185411623390E-02   8   7   7   3
 -0.1588014812622850E-02   8   7   7   4
  0.7798076035325310E-02   8   7   7   5
  0.2874152702798803E-02   8   7   7   6
  0.0000000000000000E+00   8   7   7   7
  0.0000000000000000E+00   8   7   8   1
  0.0000000000000000E+00   8   7   8   2
  0.0000000000000000E+00   8   7   8   3
  0.0000000000000000E+00   8   7   8   4
  0.0000000000000000E+00   8   7   8   5
  0.0000000000000000E+00   8   7   8   6
  0.1570722623187426E-01   8   7   8   7
  0.4814648164044362E+00   8   8   1   1
  0.4329304565146852E-01   8   8   2   1
  0.6432487040901078E+00   8   8   2   2
 -0.2905517395108705E-01   8   8   3   1
  0.2302630649759707E-01   8   8   3   2
  0.6556322721901799E+00   8   8   3   3
  0.2094435812363357E-01   8   8   4   1
  0.7165066942425674E-01   8   8   4   2
  0.7651333982787700E-01   8   8   4   3
  0.3732549991870693E+00   8   8   4   4
  0.5595634946557859E-01   8   8   5   1
 -0.9340903598299960E-01   8   8   5   2
  0.1381632902679875E-01   8   8   5   3
 -0.4514460439670975E-01   8   8   5   4
  0.4000774259947489E+00   8   8   5   5
 -0.6582125767664648E-01   8   8   6   1
 -0.3059441068269603E-01   8   8   6   2
  0.1788415726025661E-01   8   8   6   3
 -0.3207350052346636E-01   8   8   6   4
  0.2024771213339438E-01   8   8   6   5
  0.4417206880598374E+00   8   8   6   6
  0.0000000000000000E+00   8   8   7   1
  0.0000000000000000E+00   8   8   7   2
  0.0000000000000000E+00   8   8   7   3
  0.0000000000000000E+00   8   8   7   4
  0.0000000000000000E+00   8   8   7   5
  0.0000000000000000E+00   8   8   7   6
  0.4899998963613709E+00   8   8   7   7
 -0.1204192099802825E-01   8   8   8   1
 -0.1525052032729268E-01   8   8   8   2
  0.3978380527363526E-01   8   8   8   3
 -0.3002925442143051E-01   8   8   8   4
  0.1901296181391848E-01   8   8   8   5
 -0.7045091868057352E-02   8   8   8   6
  0.0000000000000000E+00   8   8   8   7
  0.6537602891807128E+00   8   8   8   8
  0.2443374273402456E-01   9   1   1   1
 -0.2599210032440740E-01   9   1   2   1
 -0.3051495873539682E-02   9   1   2   2
  0.2660149497142381E-01   9   1   3   1
 -0.1405733152316209E-01   9   1   3   2
 -0.4103870885960302E-02   9   1   3   3
  0.6449224511947628E-02   9   1   4   1
 -0.4487934551916251E-02   9   1   4   2
  0.1065706776722729E-02   9   1   4   3
 -0.5904725815224416E-02   9   1   4   4
 -0.1106044049275632E-01   9   1   5   1
  0.1205298856083496E-02   9   1   5   2
  0.4509897517070458E-02   9   1   5   3
  0.7735400443652543E-02   9   1   5   4
  0.2481992030002398E-01   9   1   5   5
 -0.1404892254069568E-01   9   1   6   1
  0.5461635595340415E-02   9   1   6   2
 -0.8237646377027473E-02   9   1   6   3
 -0.3551613181498586E-02   9   1   6   4
 -0.1330173543048017E-01   9   1   6   5
 -0.3093990762575101E-02   9   1   6   6
  0.0000000000000000E+00   9   1   7   1
  0.0000000000000000E+00   9   1   7   2
  0.0000000000000000E+00   9   1   7   3
  0.0000000000000000E+00   9   1   7   4
  0.0000000000000000E+00   9   1   7   5
  0.0000000000000000E+00   9   1   7   6
 -0.3096458461035798E-01   9   1   7   7
 -0.3191440174847913E-01   9   1   8   1
  0.9477642710865066E-02   9   1   8   2
 -0.1051730773787042E-01   9   1   8   3
 -0.4133201351637656E-02   9   1   8   4
 -0.5062535641325305E-02   9   1   8   5
  0.1241981912307190E-01   9   1   8   6
  0.0000000000000000E+00   9   1   8   7
 -0.5023222436549348E-02   9   1   8   8
  0.5062039999473164E-01   9   1   9   1
 -0.1976641035742053E-01   9   2   1   1
  0.2367497463130732E-01   9   2   2   1
  0.1302764111119654E-01   9   2   2   2
 -0.2601178115295349E-01   9   2   3   1
 -0.3818467338010415E-01   9   2   3   2
  0.2231153716074670E-01   9   2   3   3
 -0.2590060216110834E-02   9   2   4   1
 -0.9524966471981585E-02   9   2   4   2
 -0.1496386743007319E-01   9   2   4   3
 -0.2279581231340133E-03   9   2   4   4
  0.2871391382542814E-02   9   2   5   1
 -0.7042799629148101E-02   9   2   5   2
  0.2399932838995179E-01   9   2   5   3
  0.1944798973123671E-02   9   2   5   4
 -0.1585110710392014E-01   9   2   5   5
 -0.1038588780991424E-02   9   2   6   1
 -0.1595053789026056E-01   9   2   6   2
  0.2436451508245271E-01   9   2   6   3
  0.7420956994925856E-02   9   2   6   4
  0.1193527978228247E-01   9   2   6   5
  0.4401603644101925E-02   9   2   6   6
  0.0000000000000000E+00   9   2   7   1
  0.0000000000000000E+00   9   2   7   2
  0.0000000000000000E+00   9   2   7   3
  0.0000000000000000E+00   9   2   7   4
  0.0000000000000000E+00   9   2   7   5