 &FCI NORB= 19,NELEC= 10,MS2= 0,
  ORBSYM=1,1,1,1,1,1,1,1,1,1,2,2,2,2,3,3,3,3,4,
  ISYM=1,
 /
  0.5355687821707896E+01   1   1   1   1
 -0.5147617443596038E+00   2   1   1   1
  0.8092701831109697E-01   2   1   2   1
  0.1239804121995761E+01   2   2   1   1
 -0.1876411436016125E-01   2   2   2   1
  0.8990102953804268E+00   2   2   2   2
 -0.1457229050791272E+00   3   1   1   1
  0.1768703152387976E-01   3   1   2   1
 -0.1888724697082915E-01   3   1   2   2
  0.3557289864944748E-01   3   1   3   1
  0.7943959659897720E-01   3   2   1   1
 -0.9799426019158491E-02   3   2   2   1
 -0.4111143156352821E-01   3   2   2   2
  0.3030388342479519E-01   3   2   3   1
  0.1694983294282695E+00   3   2   3   2
  0.1141141183375780E+01   3   3   1   1
 -0.1510885756222663E-01   3   3   2   1
  0.8164169938579071E+00   3   3   2   2
  0.7708147029156086E-02   3   3   3   1
  0.4216008367599347E-01   3   3   3   2
  0.8485954399341235E+00   3   3   3   3
  0.1304515043329031E+00   4   1   1   1
 -0.2204808921844209E-01   4   1   2   1
  0.1455074659571774E-02   4   1   2   2
  0.2414976773422625E-02   4   1   3   1
  0.9704522937839093E-02   4   1   3   2
  0.6164042443578500E-02   4   1   3   3
  0.7664980334766151E-02   4   1   4   1
 -0.1982047079220613E+00   4   2   1   1
  0.4487516822350462E-02   4   2   2   1
 -0.1079892734533983E+00   4   2   2   2
  0.9741283271899458E-02   4   2   3   1
  0.1999182666589707E-01   4   2   3   2
 -0.7578644565291198E-01   4   2   3   3
  0.8164226504506246E-03   4   2   4   1
  0.2871657581499073E-01   4   2   4   2
  0.1161513572900506E+00   4   3   1   1
 -0.1065183861927771E-02   4   3   2   1
  0.6268027648910066E-01   4   3   2   2
 -0.3735924721385771E-02   4   3   3   1
  0.5147269429488972E-02   4   3   3   2
  0.5750646953059314E-01   4   3   3   3
 -0.5679779094896441E-03   4   3   4   1
 -0.1792685367181684E-01   4   3   4   2
  0.2013830021921417E-01   4   3   4   3
  0.4020496265608703E+00   4   4   1   1
 -0.1265295155426536E-02   4   4   2   1
  0.3795948218855384E+00   4   4   2   2
 -0.6315399132713343E-02   4   4   3   1
 -0.4333559620064174E-01   4   4   3   2
  0.3605587284223254E+00   4   4   3   3
 -0.9980187834920384E-03   4   4   4   1
 -0.8715510400533394E-02   4   4   4   2
 -0.1137740513103888E-01   4   4   4   3
  0.3475853680027152E+00   4   4   4   4
 -0.9905402543972992E-01   5   1   1   1
  0.1903542670968763E-01   5   1   2   1
  0.4397006063698100E-02   5   1   2   2
 -0.1482037310009333E-01   5   1   3   1
 -0.2064737523230711E-01   5   1   3   2
 -0.1047568707404839E-01   5   1   3   3
 -0.9526692317465106E-02   5   1   4   1
 -0.4114388663397474E-02   5   1   4   2
  0.1689669974860096E-02   5   1   4   3
  0.3113537511589929E-02   5   1   4   4
  0.1588587092505205E-01   5   1   5   1
  0.1617562931436829E+00   5   2   1   1
 -0.2912952344680367E-02   5   2   2   1
  0.7328764073653618E-01   5   2   2   2
 -0.1539720480751324E-01   5   2   3   1
 -0.1582913621056498E-01   5   2   3   2
  0.1403550026363120E-01   5   2   3   3
 -0.2610504317260277E-02   5   2   4   1
 -0.3022582232564636E-01   5   2   4   2
  0.2057479474987559E-01   5   2   4   3
 -0.2852360470787689E-02   5   2   4   4
  0.8246034012424788E-02   5   2   5   1
  0.5956051809004832E-01   5   2   5   2
 -0.2790572318372042E+00   5   3   1   1
  0.7594813522157942E-02   5   3   2   1
 -0.9058464147649241E-01   5   3   2   2
 -0.5139498785912919E-02   5   3   3   1
 -0.8221343062938818E-01   5   3   3   2
 -0.1087703548349317E+00   5   3   3   3
 -0.3318753336522238E-02   5   3   4   1
  0.2643518487848620E-01   5   3   4   2
 -0.3605270518810649E-01   5   3   4   3
  0.2534267206912424E-01   5   3   4   4
  0.5725795440375714E-02   5   3   5   1
 -0.4604868144048327E-01   5   3   5   2
  0.1206079895470665E+00   5   3   5   3
 -0.1639289359805715E+00   5   4   1   1
  0.2228669474595326E-02   5   4   2   1
 -0.1143454570766300E+00   5   4   2   2
  0.6132566176260978E-02   5   4   3   1
  0.2892663982568401E-01   5   4   3   2
 -0.1038003028268069E+00   5   4   3   3
  0.6972044820566133E-03   5   4   4   1
  0.1483266615217889E-01   5   4   4   2
 -0.1989983411655911E-02   5   4   4   3
 -0.4095496550154604E-01   5   4   4   4
 -0.2680210981248205E-02   5   4   5   1
  0.2092103183625510E-02   5   4   5   2
 -0.1376572973556795E-01   5   4   5   3
  0.4227359924148551E-01   5   4   5   4
  0.6958523656127259E+00   5   5   1   1
 -0.3985604628614522E-02   5   5   2   1
  0.6198181676913552E+00   5   5   2   2
 -0.1127048867523045E-01   5   5   3   1
 -0.1077517923107226E+00   5   5   3   2
  0.6037669604481118E+00   5   5   3   3
 -0.1281909800094599E-02   5   5   4   1
 -0.3333276722228845E-01   5   5   4   2
 -0.7960184598159836E-02   5   5   4   3
  0.4096614895055739E+00   5   5   4   4
  0.4639670904023827E-02   5   5   5   1
 -0.4322285265983085E-01   5   5   5   2
  0.8829390655349886E-01   5   5   5   3
 -0.1307472234430526E+00   5   5   5   4
  0.7417339127402979E+00   5   5   5   5
  0.1245911567831551E+00   6   1   1   1
 -0.1529622667401105E-01   6   1   2   1
  0.1503402899381797E-01   6   1   2   2
 -0.3084996877129272E-01   6   1   3   1
 -0.2385488339097092E-01   6   1   3   2
 -0.5762629959361716E-02   6   1   3   3
 -0.2114492715496269E-02   6   1   4   1
 -0.7785601840752799E-02   6   1   4   2
  0.3120571723819358E-02   6   1   4   3
  0.4959671563888869E-02   6   1   4   4
  0.1287225290832567E-01   6   1   5   1
  0.1225809796854146E-01   6   1   5   2
  0.3706379720981165E-02   6   1   5   3
 -0.4901688571791855E-02   6   1   5   4
  0.8854239221329385E-02   6   1   5   5
  0.2685299486417208E-01   6   1   6   1
 -0.6516397716028451E-01   6   2   1   1
  0.6085656410199429E-02   6   2   2   1
 -0.2673930963548359E-02   6   2   2   2
 -0.1287864479055230E-01   6   2   3   1
 -0.4622278168944414E-01   6   2   3   2
 -0.9573436430244425E-02   6   2   3   3
 -0.4743348938036316E-02   6   2   4   1
 -0.5777580373720370E-02   6   2   4   2
  0.8236744431178070E-02   6   2   4   3
 -0.1844609149397412E-02   6   2   4   4
  0.9339090483940068E-02   6   2   5   1
  0.1291293088041576E-02   6   2   5   2
  0.1644205272749898E-01   6   2   5   3
 -0.5693108048333360E-02   6   2   5   4
  0.1552739354699221E-01   6   2   5   5
  0.1049623272772056E-01   6   2   6   1
  0.3601260557392476E-01   6   2   6   2
 -0.3877833917685617E+00   6   3   1   1
  0.1152451896494797E-01   6   3   2   1
 -0.1759228094056703E+00   6   3   2   2
  0.1230106682382250E-02   6   3   3   1
  0.2125296226051303E-01   6   3   3   2
 -0.1609650722806290E+00   6   3   3   3
 -0.3206105371978858E-02   6   3   4   1
  0.3756862137589859E-01   6   3   4   2
 -0.1675363118153397E-01   6   3   4   3
 -0.3204192358274089E-01   6   3   4   4
  0.3742889695185948E-02   6   3   5   1
 -0.1683651735504960E-01   6   3   5   2
  0.2860950313909983E-01   6   3   5   3
  0.3074396881633849E-01   6   3   5   4
 -0.1091259869479004E+00   6   3   5   5
 -0.8973430855905920E-03   6   3   6   1
  0.1002756022225795E-01   6   3   6   2
  0.1048572567223120E+00   6   3   6   3
 -0.6094280159246136E-01   6   4   1   1
  0.4481781452289899E-03   6   4   2   1
 -0.4111148336165801E-01   6   4   2   2
  0.5529596899485270E-02   6   4   3   1
  0.3438372619405297E-01   6   4   3   2
 -0.2317311806472196E-01   6   4   3   3
  0.1100967774404081E-02   6   4   4   1
  0.7754505957427700E-02   6   4   4   2
  0.3387264979283454E-02   6   4   4   3
 -0.2735355212407613E-01   6   4   4   4
 -0.2904771163163894E-02   6   4   5   1
 -0.5333678455444033E-02   6   4   5   2
 -0.1091315927623192E-01   6   4   5   3
  0.1230109960645621E-01   6   4   5   4
 -0.4922473119372058E-01   6   4   5   5
 -0.4374017295074049E-02   6   4   6   1
  0.6582410819446008E-03   6   4   6   2
  0.2575126557549958E-01   6   4   6   3
  0.1865018179023362E-01   6   4   6   4
  0.1417667216051575E+00   6   5   1   1
 -0.5588066077058629E-02   6   5   2   1
  0.2903557767394997E-01   6   5   2   2
 -0.3079572533686925E-03   6   5   3   1
  0.1360615120811890E-01   6   5   3   2
  0.3078546472898110E-01   6   5   3   3
  0.1592189928684278E-02   6   5   4   1
 -0.9561418933322359E-02   6   5   4   2
  0.5953848194406211E-02   6   5   4   3
  0.5637786076170017E-02   6   5   4   4
 -0.1922764913584176E-02   6   5   5   1
  0.1562271058785054E-01   6   5   5   2
 -0.3158302540432043E-01   6   5   5   3
 -0.6323971049598367E-02   6   5   5   4
 -0.4801366237748527E-02   6   5   5   5
  0.3516243703370163E-03   6   5   6   1
 -0.9855784484720184E-02   6   5   6   2
 -0.2296649183253210E-01   6   5   6   3
 -0.5498848508275308E-02   6   5   6   4
  0.2352931474501864E-01   6   5   6   5
  0.8002032390226860E+00   6   6   1   1
 -0.1103701594473378E-01   6   6   2   1
  0.5962780777078357E+00   6   6   2   2
  0.4377868819088179E-02   6   6   3   1
  0.5075050271237497E-01   6   6   3   2
  0.6280547059634232E+00   6   6   3   3
  0.4231488977190320E-02   6   6   4   1
 -0.4031950802134338E-01   6   6   4   2
  0.4653180033598885E-01   6   6   4   3
  0.3051667200564550E+00   6   6   4   4
 -0.6702367608050847E-02   6   6   5   1
  0.1170081679371156E-01   6   6   5   2
 -0.7992185379365824E-01   6   6   5   3
 -0.6096679199452004E-01   6   6   5   4
  0.4421300943117594E+00   6   6   5   5
 -0.3167650364413674E-02   6   6   6   1
  0.9772366893513906E-02   6   6   6   2
 -0.5018391321312854E-01   6   6   6   3
  0.1081481409158819E-01   6   6   6   4
  0.6935115797762847E-02   6   6   6   5
  0.5772046442123401E+00   6   6   6   6
  0.4304704172129444E+00   7   1   1   1
 -0.6628078518964058E-01   7   1   2   1
  0.1824855405606413E-01   7   1   2   2
 -0.2498588195831246E-01   7   1   3   1
 -0.2001442906670117E-02   7   1   3   2
  0.6763963229769023E-02   7   1   3   3
  0.1563461879855869E-01   7   1   4   1
 -0.5931268412615703E-02   7   1   4   2
  0.1584510746401541E-02   7   1   4   3
  0.2646978716430486E-02   7   1   4   4
 -0.9261232742255902E-02   7   1   5   1
  0.6759245936372989E-02   7   1   5   2
 -0.3164163218653817E-02   7   1   5   3
 -0.3209075843517364E-02   7   1   5   4
  0.5550485786108347E-02   7   1   5   5
  0.2165970720577719E-01   7   1   6   1
 -0.6003155416225532E-03   7   1   6   2
 -0.7618255782153941E-02   7   1   6   3
 -0.1775292326995999E-02   7   1   6   4
  0.3646143500329642E-02   7   1   6   5
  0.5889535627863571E-02   7   1   6   6
  0.5813172534489719E-01   7   1   7   1
 -0.4145520586906173E+00   7   2   1   1
  0.1712099013888346E-01   7   2   2   1
 -0.1523915150518633E+00   7   2   2   2
  0.6193445343828532E-02   7   2   3   1
 -0.1197314402728460E-02   7   2   3   2
 -0.1467965417064168E+00   7   2   3   3
 -0.3881239593881723E-02   7   2   4   1
  0.3767635313850833E-01   7   2   4   2
 -0.2294640816840761E-01   7   2   4   3
 -0.1773349297967654E-01   7   2   4   4
  0.2535012791835652E-02   7   2   5   1
 -0.2273149906684717E-01   7   2   5   2
  0.4858299357675498E-01   7   2   5   3
  0.2721725906523715E-01   7   2   5   4
 -0.7048198017891187E-01   7   2   5   5
 -0.5130826451980756E-02   7   2   6   1
 -0.4206585679756292E-03   7   2   6   2
  0.7763276987735054E-01   7   2   6   3
  0.1144185206676160E-01   7   2   6   4
 -0.2504432350431632E-01   7   2   6   5
 -0.7100915980570313E-01   7   2   6   6
 -0.1332693300215354E-01   7   2   7   1
  0.8804583447611800E-01   7   2   7   2
 -0.1809191396487466E+00   7   3   1   1
  0.1119512928508201E-01   7   3   2   1
 -0.3694693790022076E-01   7   3   2   2
 -0.1913265643122775E-01   7   3   3   1
 -0.6206667146078195E-01   7   3   3   2
 -0.7549083130261139E-01   7   3   3   3
 -0.7697113222299976E-02   7   3   4   1
 -0.1406822983230254E-02   7   3   4   2
  0.6466761936478743E-03   7   3   4   3
 -0.1561894130488265E-02   7   3   4   4
  0.1513230475803560E-01   7   3   5   1
  0.1206886729892272E-01   7   3   5   2
  0.3691775568442043E-01   7   3   5   3
  0.2268160998226944E-02   7   3   5   4
 -0.1039484668636514E-01   7   3   5   5
  0.1536979272047928E-01   7   3   6   1
  0.3625105954279326E-01   7   3   6   2
  0.3302345653940217E-01   7   3   6   3
 -0.2795817675162208E-03   7   3   6   4
 -0.1769905932383735E-01   7   3   6   5
 -0.3105338981250012E-01   7   3   6   6
 -0.1789198626975672E-02   7   3   7   1
  0.2817149346798863E-01   7   3   7   2
  0.5978245855783801E-01   7   3   7   3
  0.1512475199407018E+00   7   4   1   1
 -0.3120860486365392E-02   7   4   2   1
  0.9587583073391606E-01   7   4   2   2
 -0.5713557866981153E-02   7   4   3   1
 -0.6091321749341645E-02   7   4   3   2
  0.7999435507872688E-01   7   4   3   3
 -0.3417667980323523E-03   7   4   4   1
 -0.1716239461860015E-01   7   4   4   2
  0.1461493353795668E-01   7   4   4   3
  0.6353244864521690E-02   7   4   4   4
  0.2265085404574208E-02   7   4   5   1
  0.1691418863788243E-01   7   4   5   2
 -0.1832262732594609E-01   7   4   5   3
 -0.1444488000197146E-01   7   4   5   4
  0.4076218119110044E-01   7   4   5   5
  0.4632789518674164E-02   7   4   6   1
  0.3956618063571116E-02   7   4   6   2
 -0.1891015754959981E-01   7   4   6   3
 -0.3473867589627127E-02   7   4   6   4
  0.3027205189741089E-02   7   4   6   5
  0.6130183145501251E-01   7   4   6   6
  0.3867437752165664E-02   7   4   7   1
 -0.1863903870322475E-01   7   4   7   2
  0.1007220873633551E-02   7   4   7   3
  0.2277275145023815E-01   7   4   7   4
  0.7843710022101633E-02   7   5   1   1
 -0.1555599381807867E-03   7   5   2   1
  0.1409421498967873E-01   7   5   2   2
  0.1235072358592869E-01   7   5   3   1
  0.3016526075208412E-01   7   5   3   2
  0.3854384443546929E-01   7   5   3   3
  0.2795802702379084E-02   7   5   4   1
  0.5547462250637258E-02   7   5   4   2
  0.7917091819690748E-03   7   5   4   3
 -0.3891521495274343E-02   7   5   4   4
 -0.7390641376474743E-02   7   5   5   1
 -0.1376386934833638E-01   7   5   5   2
 -0.8922234044497070E-02   7   5   5   3
  0.2933451178137430E-02   7   5   5   4
  0.6957603117027250E-02   7   5   5   5
 -0.9941297331895999E-02   7   5   6   1
 -0.1218834698285410E-01   7   5   6   2
 -0.7337739921751119E-02   7   5   6   3
  0.4402962963912332E-02   7   5   6   4
 -0.3650193683319723E-02   7   5   6   5
  0.2701355798768429E-01   7   5   6   6
 -0.3753850769420055E-02   7   5   7   1
  0.3322405875047993E-02   7   5   7   2
 -0.1952193874494331E-01   7   5   7   3
  0.1903257997304841E-02   7   5   7   4
  0.1834026841307303E-01   7   5   7   5
  0.1461229171769887E+00   7   6   1   1
 -0.9777861610779733E-02   7   6   2   1
  0.1286650613557217E-01   7   6   2   2
  0.1662646216260284E-01   7   6   3   1
  0.8598497987909018E-01   7   6   3   2
  0.6334229267484935E-01   7   6   3   3
  0.6678906598596084E-02   7   6   4   1
  0.2484414142905731E-02   7   6   4   2
  0.1019796901897881E-01   7   6   4   3
 -0.2022728092181707E-01   7   6   4   4
 -0.1305464167750328E-01   7   6   5   1
 -0.7972022165158049E-02   7   6   5   2
 -0.5200856322993744E-01   7   6   5   3
  0.5843727406021893E-02   7   6   5   4
 -0.3310508825150664E-01   7   6   5   5
 -0.1316127395752203E-01   7   6   6   1
 -0.1760217159866774E-01   7   6   6   2
 -0.3876887731883192E-02   7   6   6   3
  0.1924233679493145E-01   7   6   6   4
  0.1311098368204988E-01   7   6   6   5
  0.5797871448568229E-01   7   6   6   6
  0.1731396136950211E-02   7   6   7   1
 -0.2282932712019353E-01   7   6   7   2
 -0.3770370618287249E-01   7   6   7   3
  0.1321326204522633E-02   7   6   7   4
  0.1443741151051601E-01   7   6   7   5
  0.5834242178570406E-01   7   6   7   6
  0.9662851839199914E+00   7   7   1   1
 -0.1693384631250787E-01   7   7   2   1
  0.6904174504803751E+00   7   7   2   2
  0.1559352291245972E-03   7   7   3   1
  0.2676574211563025E-01   7   7   3   2
  0.6652366976269319E+00   7   7   3   3
  0.5139430788271143E-02   7   7   4   1
 -0.5947954620079748E-01   7   7   4   2
  0.4027038938259175E-01   7   7   4   3
  0.3434811255075799E+00   7   7   4   4
 -0.6041848590892934E-02   7   7   5   1
  0.4040146088399171E-01   7   7   5   2
 -0.8150905653185206E-01   7   7   5   3
 -0.7009027319725303E-01   7   7   5   4
  0.4909557326466297E+00   7   7   5   5
 -0.1094218123819934E-03   7   7   6   1
 -0.2376418682276815E-01   7   7   6   2
 -0.1116322599344188E+00   7   7   6   3
 -0.2192713303520977E-01   7   7   6   4
  0.2279408392090132E-01   7   7   6   5
  0.5217833912554638E+00   7   7   6   6
  0.1141919181701911E-01   7   7   7   1
 -0.8545296036469763E-01   7   7   7   2
 -0.4704965153176333E-01   7   7   7   3
  0.6872431630304854E-01   7   7   7   4
  0.2947851475223595E-01   7   7   7   5
  0.3101370882490295E-01   7   7   7   6
  0.5995738981839187E+00   7   7   7   7
  0.1838752273929898E+00   8   1   1   1
 -0.3456993762067039E-01   8   1   2   1
 -0.4924302584259371E-02   8   1   2   2
  0.2393094186328624E-01   8   1   3   1
  0.3007807157342884E-01   8   1   3   2
  0.1703895386462584E-01   8   1   3   3
  0.1662746167345182E-01   8   1   4   1
  0.5673244329888797E-02   8   1   4   2
 -0.2274621143314963E-02   8   1   4   3
 -0.4331613408020961E-02   8   1   4   4
 -0.2711745699538186E-01   8   1   5   1
 -0.1205751555425519E-01   8   1   5   2
 -0.8914086007744598E-02   8   1   5   3
  0.3687056050936513E-02   8   1   5   4
 -0.5960333465180596E-02   8   1   5   5
 -0.2093296518667465E-01   8   1   6   1
 -0.1388874040647765E-01   8   1   6   2
 -0.6931930206492493E-02   8   1   6   3
  0.3986266565177679E-02   8   1   6   4
  0.3367485237957287E-02   8   1   6   5
  0.1082567248558205E-01   8   1   6   6
  0.1787631226862309E-01   8   1   7   1
 -0.4899596247172532E-02   8   1   7   2
 -0.2311280432599288E-01   8   1   7   3
 -0.3163572228299296E-02   8   1   7   4
  0.1110637381299689E-01   8   1   7   5
  0.1967811922374460E-01   8   1   7   6
  0.1015673014599786E-01   8   1   7   7
  0.4672419579339709E-01   8   1   8   1
 -0.2041916446593827E+00   8   2   1   1
  0.8105890554255275E-02   8   2   2   1
 -0.4267443965736684E-01   8   2   2   2
  0.1231668940418259E-01   8   2   3   1
 -0.2469737494023741E-01   8   2   3   2
 -0.9182979568844301E-02   8   2   3   3
  0.3699324813139851E-03   8   2   4   1
  0.1849062413676236E-01   8   2   4   2
 -0.1014368158488096E-01   8   2   4   3
  0.2021609044006203E-03   8   2   4   4
 -0.4960974331916362E-02   8   2   5   1
 -0.4163159612804548E-01   8   2   5   2
  0.3926759209877038E-01   8   2   5   3
  0.6009560545806694E-02   8   2   5   4
  0.2023669428969707E-01   8   2   5   5
 -0.1001345024281990E-01   8   2   6   1
  0.9469940775083067E-02   8   2   6   2
  0.8661138064722379E-02   8   2   6   3
 -0.1294987540726916E-02   8   2   6   4
 -0.2055285830525979E-01   8   2   6   5
 -0.1140024224887795E-01   8   2   6   6
 -0.9720256772503350E-02   8   2   7   1
  0.2607957993068497E-01   8   2   7   2
  0.6769995725126182E-04   8   2   7   3
 -0.9995267376286143E-02   8   2   7   4
  0.1384818843515687E-01   8   2   7   5
 -0.1313705543157988E-01   8   2   7   6
 -0.3027536791349461E-01   8   2   7   7
  0.7575682839382033E-02   8   2   8   1
  0.6444790774184704E-01   8   2   8   2
  0.2338465703383027E+00   8   3   1   1
 -0.1142478055379349E-01   8   3   2   1
  0.1871463263746260E-01   8   3   2   2
  0.4796045269220628E-02   8   3   3   1
  0.6952528980945485E-01   8   3   3   2
  0.5521112007096800E-01   8   3   3   3
  0.4451325754825326E-02   8   3   4   1
 -0.5267111944440440E-02   8   3   4   2
  0.9826902032310384E-02   8   3   4   3
 -0.2139823298176558E-02   8   3   4   4
 -0.6916501034434008E-02   8   3   5   1
  0.1240707336950651E-01   8   3   5   2
 -0.6507026395164499E-01   8   3   5   3
 -0.6380296298520024E-02   8   3   5   4
 -0.1443815592492427E-01   8   3   5   5
 -0.3380124529433121E-02   8   3   6   1
 -0.1976754975299441E-01   8   3   6   2
 -0.1835125605361383E-01   8   3   6   3
  0.4685847218442993E-02   8   3   6   4
  0.3317053378937374E-01   8   3   6   5
  0.3567921774513721E-01   8   3   6   6
  0.6112004495649317E-02   8   3   7   1
 -0.3678118002786776E-01   8   3   7   2
 -0.3874304271104211E-01   8   3   7   3
  0.1427326522466341E-02   8   3   7   4
  0.2765824067972943E-02   8   3   7   5
  0.4429609763407408E-01   8   3   7   6
  0.3330806672725676E-01   8   3   7   7
  0.1084039305479161E-01   8   3   8   1
 -0.4390483483398721E-01   8   3   8   2
  0.8238466427462601E-01   8   3   8   3
  0.1485584532737043E+00   8   4   1   1
 -0.5010703401130053E-02   8   4   2   1
  0.4986303696202175E-01   8   4   2   2
 -0.4198350573275903E-02   8   4   3   1
  0.1459957170900882E-01   8   4   3   2
  0.3765279521696918E-01   8   4   3   3
  0.5244019804363873E-03   8   4   4   1
 -0.1697120691517466E-01   8   4   4   2
  0.1774259617697024E-01   8   4   4   3
 -0.1768396956444003E-01   8   4   4   4
  0.8172367632876413E-03   8   4   5   1
  0.2652175017746490E-01   8   4   5   2
 -0.4231244711399905E-01   8   4   5   3
  0.9658549584560831E-02   8   4   5   4
 -0.3675159113850163E-01   8   4   5   5
  0.3488921298117304E-02   8   4   6   1
 -0.2682102384067762E-02   8   4   6   2
 -0.1777091290198806E-01   8   4   6   3
  0.1858313900488122E-02   8   4   6   4
  0.6278809445681266E-02   8   4   6   5
  0.2823317256337194E-01   8   4   6   6
  0.4742156122457014E-02   8   4   7   1
 -0.2191873499281691E-01   8   4   7   2
 -0.7086985614173612E-02   8   4   7   3
  0.1313475596047203E-01   8   4   7   4
  0.8452683932886826E-03   8   4   7   5
  0.1039649994516194E-01   8   4   7   6
  0.3509476488481214E-01   8   4   7   7
 -0.9676948927644508E-03   8   4   8   1
 -0.1745836984669991E-01   8   4   8   2
  0.1117218295702917E-01   8   4   8   3
  0.3076098081024519E-01   8   4   8   4
 -0.3574793723901988E+00   8   5   1   1
  0.9203995923904799E-02   8   5   2   1
 -0.1741258806837612E+00   8   5   2   2
  0.5752987090109300E-02   8   5   3   1
 -0.7997638093588201E-02   8   5   3   2
 -0.1602932948177521E+00   8   5   3   3
 -0.1415874365800332E-02   8   5   4   1
  0.4172881189704161E-01   8   5   4   2
 -0.4027546676732362E-01   8   5   4   3
  0.1498164284073587E-01   8   5   4   4
 -0.3187953870407816E-04   8   5   5   1
 -0.3653907360768274E-01   8   5   5   2
  0.7129802815423213E-01   8   5   5   3
 -0.2059148744233685E-03   8   5   5   4
 -0.3581549012212247E-02   8   5   5   5
 -0.4787703101373317E-02   8   5   6   1
 -0.6637146410828146E-02   8   5   6   2
  0.6496797054172332E-01   8   5   6   3
  0.7175093938373636E-03   8   5   6   4
 -0.4267136148252637E-02   8   5   6   5
 -0.1052537935051713E+00   8   5   6   6
 -0.7799911460430686E-02   8   5   7   1
  0.6202475151497894E-01   8   5   7   2
  0.1468472137907566E-01   8   5   7   3
 -0.3293168095101365E-01   8   5   7   4
 -0.1166575762416504E-01   8   5   7   5
 -0.1894593981110482E-01   8   5   7   6
 -0.1157782686541575E+00   8   5   7   7
 -0.8321261311084391E-03   8   5   8   1
  0.8378937896857369E-02   8   5   8   2
 -0.2222032369427800E-02   8   5   8   3
 -0.5470316404877780E-01   8   5   8   4
  0.1376488704734066E+00   8   5   8   5
 -0.1956125221219820E+00   8   6   1   1
  0.9250978534759485E-02   8   6   2   1
 -0.3502278565084443E-01   8   6   2   2
 -0.5742871622342171E-03   8   6   3   1
 -0.3395036142629678E-01   8   6   3   2
 -0.4091828584331380E-01   8   6   3   3
 -0.2877180778096927E-02   8   6   4   1
  0.1025414932731305E-01   8   6   4   2
 -0.1227879228914346E-01   8   6   4   3
  0.5624664544084063E-02   8   6   4   4
  0.3671971504791545E-02   8   6   5   1
 -0.2313296034447914E-01   8   6   5   2
  0.5263541613233083E-01   8   6   5   3
 -0.3523821696587169E-02   8   6   5   4
  0.3098618403046793E-01   8   6   5   5
  0.2379183549088074E-03   8   6   6   1
  0.1542519213458626E-01   8   6   6   2
  0.1908722598835372E-01   8   6   6   3
  0.7041810786449464E-03   8   6   6   4
 -0.2249962829488713E-01   8   6   6   5
 -0.2533158262501158E-01   8   6   6   6
 -0.6114538579315126E-02   8   6   7   1
  0.2199555088488108E-01   8   6   7   2
  0.2438425880984596E-01   8   6   7   3
 -0.8095412455974477E-02   8   6   7   4
 -0.2222615134631893E-02   8   6   7   5
 -0.2212564636842429E-01   8   6   7   6
 -0.3968855913442388E-01   8   6   7   7
 -0.6182088689703678E-02   8   6   8   1
  0.2624102027789537E-01   8   6   8   2
 -0.4151047980337279E-01   8   6   8   3
 -0.2148560183721805E-01   8   6   8   4
  0.2716687801397855E-01   8   6   8   5
  0.3669690112145152E-01   8   6   8   6
  0.7119453808264539E-01   8   7   1   1
 -0.1653473898914155E-02   8   7   2   1
  0.3402402547097663E-01   8   7   2   2
 -0.1478236468170020E-01   8   7   3   1
 -0.3145089784447620E-01   8   7   3   2
 -0.7121732581840920E-02   8   7   3   3
 -0.2815077983050946E-02   8   7   4   1
 -0.1287300986935733E-01   8   7   4   2
  0.2746848936225878E-02   8   7   4   3
  0.1146850889968890E-01   8   7   4   4
  0.8384591620270250E-02   8   7   5   1
  0.2599076727852850E-01   8   7   5   2
 -0.4877171060577864E-03   8   7   5   3
 -0.6775546682272086E-02   8   7   5   4
  0.6743299240546318E-02   8   7   5   5
  0.1183726451444990E-01   8   7   6   1
  0.4120238731384559E-02   8   7   6   2
 -0.1231225164538034E-02   8   7   6   3
 -0.8069750116078366E-02   8   7   6   4
  0.3935321535325081E-02   8   7   6   5
 -0.4942671874447957E-02   8   7   6   6
  0.5885795001741044E-02   8   7   7   1
 -0.6743472052368242E-02   8   7   7   2
  0.1300568811983925E-01   8   7   7   3
  0.7672219445759474E-02   8   7   7   4
 -0.1493476466997695E-01   8   7   7   5
 -0.1851260610692222E-01   8   7   7   6
  0.9771517469752453E-02   8   7   7   7
 -0.1264054150709534E-01   8   7   8   1
 -0.1970980953261136E-01   8   7   8   2
 -0.3942487475623778E-02   8   7   8   3
  0.8154430295950112E-02   8   7   8   4
 -0.6043187678230963E-02   8   7   8   5
 -0.5797852440599476E-02   8   7   8   6
  0.2504351410911036E-01   8   7   8   7
  0.9897287206923805E+00   8   8   1   1
 -0.1421182130065233E-01   8   8   2   1
  0.7469114388847304E+00   8   8   2   2
 -0.1869480431478109E-01   8   8   3   1
 -0.1114688808422392E+00   8   8   3   2
  0.7021683191780734E+00   8   8   3   3
  0.1524485658594005E-03   8   8   4   1
 -0.6588663052463567E-01   8   8   4   2
  0.1708494219851125E-01   8   8   4   3
  0.4213119492167521E+00   8   8   4   4
  0.5329577698199015E-02   8   8   5   1
  0.7715898729493686E-03   8   8   5   2
  0.2863443797809534E-01   8   8   5   3
 -0.1382041786167002E+00   8   8   5   4
  0.7288322372928235E+00   8   8   5   5
  0.1480292729614979E-01   8   8   6   1
  0.1466534078910964E-01   8   8   6   2
 -0.1521207221268228E+00   8   8   6   3
 -0.5713832569672028E-01   8   8   6   4
  0.1626179724799304E-01   8   8   6   5
  0.5041408917950705E+00   8   8   6   6
  0.1499512863675578E-01   8   8   7   1
 -0.1128677710702990E+00   8   8   7   2
 -0.2005840983260471E-01   8   8   7   3
  0.6090792064912215E-01   8   8   7   4
  0.5282683306714109E-02   8   8   7   5
 -0.2542517899144370E-01   8   8   7   6
  0.5753936907462838E+00   8   8   7   7
 -0.5984149483988843E-02   8   8   8   1
  0.4314688560313140E-02   8   8   8   2
 -0.3951884482371243E-02   8   8   8   3
 -0.1583521703073942E-01   8   8   8   4
 -0.5967456719532416E-01   8   8   8   5
  0.9370185392107877E-02   8   8   8   6
  0.2036439629066455E-01   8   8   8   7
  0.8070953944542041E+00   8   8   8   8
  0.3233917832665210E-15   9   1   1   1
 -0.6201863114355854E-16   9   1   2   1
 -0.1013763489345156E-16   9   1   2   2
  0.3880680245557045E-16   9   1   3   1
  0.5039904372610401E-16   9   1   3   2
  0.2566821746760226E-16   9   1   3   3
  0.2893198305060163E-16   9   1   4   1
  0.1009329062350288E-16   9   1   4   2
 -0.4309479973136903E-17   9   1   4   3
 -0.7575632024027691E-17   9   1   4   4
 -0.4616817432876615E-16   9   1   5   1
 -0.2046727676222388E-16   9   1   5   2
 -0.1364187891487505E-16   9   1   5   3
  0.6678513573256390E-17   9   1   5   4
 -0.1118182903391585E-16   9   1   5   5
 -0.3391955446383804E-16   9   1   6   1
 -0.2328379524876859E-16   9   1   6   2
 -0.9949332374859496E-17   9   1   6   3
  0.6940932735573576E-17   9   1   6   4
  0.4892909275465828E-17   9   1   6   5
  0.1666926699423314E-16   9   1   6   6
  0.3349415116760670E-16   9   1   7   1
 -0.6969987383917449E-17   9   1   7   2
 -0.3806113667387105E-16   9   1   7   3
 -0.5519676971991869E-17   9   1   7   4
  0.1849844863452751E-16   9   1   7   5
  0.3244394035539987E-16   9   1   7   6
  0.1588395084486251E-16   9   1   7   7
  0.7767674578150415E-16   9   1   8   1
  0.5399779395466449E-17   9   1   8   2
  0.1447708195856108E-16   9   1   8   3
 -0.4776773822789485E-18   9   1   8   4
 -0.2117078409809395E-17   9   1   8   5
 -0.7435473064693860E-17   9   1   8   6
 -0.1837892910461295E-16   9   1   8   7
 -0.5454950874029045E-17   9   1   8   8
  0.1848816521154321E-02   9   1   9   1
 -0.3994815751886376E-15   9   2   1   1
  0.1617239393602917E-16   9   2   2   1
 -0.9418724724030155E-16   9   2   2   2
  0.2180333651568136E-16   9   2   3   1
 -0.4183093205612184E-16   9   2   3   2
 -0.3721642919634135E-16   9   2   3   3
  0.2553764553579139E-18   9   2   4   1
  0.3786944527855385E-16   9   2   4   2
 -0.2020568927041714E-16   9   2   4   3
 -0.2651452179094010E-17   9   2   4   4
 -0.8017263036654893E-17   9   2   5   1
 -0.7344563065218858E-16   9   2   5   2
  0.7309927946121847E-16   9   2   5   3
  0.1472134770432612E-16   9   2   5   4
  0.2298900393274603E-16   9   2   5   5
 -0.1766342465694162E-16   9   2   6   1
  0.1653713659067682E-16   9   2   6   2
  0.2609833491269823E-16   9   2   6   3
 -0.1214962026068453E-17   9   2   6   4
 -0.3785894269559309E-16   9   2   6   5
 -0.3067070726288141E-16   9   2   6   6
 -0.1782246516654193E-16   9   2   7   1
  0.5446478017646947E-16   9   2   7   2
  0.3215134617745782E-17   9   2   7   3
 -0.1896913151520192E-16   9   2   7   4
  0.2322441635178077E-16   9   2   7   5