 &FCI NORB= 10,NELEC=  4,MS2= 0,
  ORBSYM=1,1,1,2,3,5,5,5,6,7,
  ISYM=1,
 /
  0.1131705480098182E+01   1   1   1   1
 -0.2460701509613127E+00   2   1   1   1
  0.1150369784186017E+00   2   1   2   1
  0.7044791083264372E+00   2   2   1   1
 -0.9099623081741282E-01   2   2   2   1
  0.5435443831958979E+00   2   2   2   2
  0.5402134211504894E-01   3   1   1   1
 -0.2886801622123903E-01   3   1   2   1
  0.1766440860983604E-01   3   1   2   2
  0.1008207185652419E+00   3   1   3   1
 -0.5744437417056000E-01   3   2   1   1
  0.1840124380974389E-01   3   2   2   1
 -0.2454746076613308E-01   3   2   2   2
 -0.7708047873283365E-02   3   2   3   1
  0.2485152744560494E-01   3   2   3   2
  0.9187514618630924E+00   3   3   1   1
 -0.1377783417651564E+00   3   3   2   1
  0.6257603841801092E+00   3   3   2   2
 -0.2476096012690998E-01   3   3   3   1
 -0.5678148151385348E-01   3   3   3   2
  0.8767450152820702E+00   3   3   3   3
  0.9506262837352306E+00   4   4   1   1
 -0.1419102436623146E+00   4   4   2   1
  0.6369960339551648E+00   4   4   2   2
  0.5921132094478032E-01   4   4   3   1
 -0.4119221360151915E-01   4   4   3   2
  0.8162321987028960E+00   4   4   3   3
  0.9402149817131604E+00   4   4   4   4
  0.9506262837352306E+00   5   5   1   1
 -0.1419102436623146E+00   5   5   2   1
  0.6369960339551648E+00   5   5   2   2
  0.5921132094478032E-01   5   5   3   1
 -0.4119221360151915E-01   5   5   3   2
  0.8162321987028960E+00   5   5   3   3
  0.8402922995969347E+00   5   5   4   4
  0.9402149817131604E+00   5   5   5   5
  0.7922684429045661E+00   6   6   1   1
 -0.1060097287738936E+00   6   6   2   1
  0.5748046773681277E+00   6   6   2   2
 -0.3934342466255247E-01   6   6   3   1
 -0.3960366770665519E-01   6   6   3   2
  0.7460997013332640E+00   6   6   3   3
  0.7063096112899195E+00   6   6   4   4
  0.7063096112899195E+00   6   6   5   5
  0.6763014684321368E+00   6   6   6   6
  0.2975140420513702E+00   7   6   1   1
 -0.1018475834669703E+00   7   6   2   1
  0.1209977850862122E+00   7   6   2   2
 -0.1736284100392857E-01   7   6   3   1
 -0.1216114344004945E-01   7   6   3   2
  0.2287908800033397E+00   7   6   3   3
  0.2099475731187929E+00   7   6   4   4
  0.2099475731187929E+00   7   6   5   5
  0.1767259464300323E+00   7   6   6   6
  0.1454718704248568E+00   7   6   7   6
  0.7464186603514524E+00   7   7   1   1
 -0.1150987840381419E+00   7   7   2   1
  0.5423065479157864E+00   7   7   2   2
 -0.2978196228700375E-01   7   7   3   1
 -0.2718378973438795E-01   7   7   3   2
  0.6772847316992708E+00   7   7   3   3
  0.6445090014110669E+00   7   7   4   4
  0.6445090014110669E+00   7   7   5   5
  0.6238187935931340E+00   7   7   6   6
  0.1628023665342146E+00   7   7   7   6
  0.5963917158115933E+00   7   7   7   7
 -0.1237246750698887E+00   8   6   1   1
  0.7903135135418494E-01   8   6   2   1
 -0.3982786659913543E-01   8   6   2   2
 -0.4861403438355424E-01   8   6   3   1
 -0.1311987946093715E-01   8   6   3   2
  0.8870814658075289E-03   8   6   3   3
 -0.5891510116026585E-01   8   6   4   4
 -0.5891510116026585E-01   8   6   5   5
 -0.9339765934472938E-02   8   6   6   6
 -0.4773306887000955E-01   8   6   7   6
 -0.4004262806318665E-01   8   6   7   7
  0.1050992769868556E+00   8   6   8   6
 -0.2319812446722579E+00   8   7   1   1
  0.1037989324137765E+00   8   7   2   1
 -0.9728139181438301E-01   8   7   2   2
 -0.2783333669844820E-01   8   7   3   1
  0.4726448075585209E-02   8   7   3   2
 -0.1124001718840720E+00   8   7   3   3
 -0.1416184024320367E+00   8   7   4   4
 -0.1416184024320367E+00   8   7   5   5
 -0.1009704201853941E+00   8   7   6   6
 -0.9314467442556382E-01   8   7   7   6
 -0.1108982806348776E+00   8   7   7   7
  0.9220248222518507E-01   8   7   8   6
  0.1148094606392382E+00   8   7   8   7
  0.1007027990489125E+01   8   8   1   1
 -0.2056237322893459E+00   8   8   2   1
  0.6651695678924094E+00   8   8   2   2
 -0.3758244019975654E-01   8   8   3   1
 -0.5959931573598953E-01   8   8   3   2
  0.8936727372859349E+00   8   8   3   3
  0.8179240670366720E+00   8   8   4   4
  0.8179240670366720E+00   8   8   5   5
  0.7874972424779173E+00   8   8   6   6
  0.2740701938434656E+00   8   8   7   6
  0.7351458564408910E+00   8   8   7   7
 -0.6280361840338688E-01   8   8   8   6
 -0.1947318184523505E+00   8   8   8   7
  0.1032242176426445E+01   8   8   8   8
  0.8593113802668467E+00   9   9   1   1
 -0.1028055917070647E+00   9   9   2   1
  0.6072963532260123E+00   9   9   2   2
 -0.1024065470853297E-01   9   9   3   1
 -0.3985363898521876E-01   9   9   3   2
  0.7869819797410804E+00   9   9   3   3
  0.8461281573018609E+00   9   9   4   4
  0.7701425753823382E+00   9   9   5   5
  0.7060553243041975E+00   9   9   6   6
  0.1931210624030438E+00   9   9   7   6
  0.6344946992612768E+00   9   9   7   7
 -0.1242092166286235E-01   9   9   8   6
 -0.1036200542737112E+00   9   9   8   7
  0.7950506114047113E+00   9   9   8   8
  0.8346077063344396E+00   9   9   9   9
  0.8593113802668467E+00  10  10   1   1
 -0.1028055917070647E+00  10  10   2   1
  0.6072963532260123E+00  10  10   2   2
 -0.1024065470853297E-01  10  10   3   1
 -0.3985363898521876E-01  10  10   3   2
  0.7869819797410804E+00  10  10   3   3
  0.7701425753823383E+00  10  10   4   4
  0.8461281573018609E+00  10  10   5   5
  0.7060553243041975E+00  10  10   6   6
  0.1931210624030438E+00  10  10   7   6
  0.6344946992612768E+00  10  10   7   7
 -0.1242092166286235E-01  10  10   8   6
 -0.1036200542737112E+00  10  10   8   7
  0.7950506114047113E+00  10  10   8   8
  0.7516569003142638E+00  10  10   9   9
  0.8346077063344396E+00  10  10  10  10
  0.1593671184584788E+00   4   1   4   1
  0.1226211255894797E-01   4   2   4   1
  0.2301851813340292E-01   4   2   4   2
  0.5336511455095293E-01   4   3   4   1
 -0.1007810327201102E-02   4   3   4   2
  0.5342916894945749E-01   4   3   4   3
 -0.1075322997028781E+00   9   6   4   1
 -0.2239789605802450E-01   9   6   4   2
 -0.7226770909049775E-02   9   6   4   3
  0.1011374595457729E+00   9   6   9   6
 -0.4998046229700624E-01   9   7   4   1
  0.2854471161893865E-02   9   7   4   2
 -0.2120306915577201E-02   9   7   4   3
  0.4021150037011197E-01   9   7   9   6
  0.2821455536790459E-01   9   7   9   7
  0.5884925008606173E-02   9   8   4   1
 -0.1187091031771868E-01   9   8   4   2
  0.2073207488622069E-01   9   8   4   3
  0.1611406055740472E-01   9   8   9   6
  0.7304267011349754E-03   9   8   9   7
  0.2437024774146308E-01   9   8   9   8
  0.1593671184584788E+00   5   1   5   1
  0.1226211255894797E-01   5   2   5   1
  0.2301851813340292E-01   5   2   5   2
  0.5336511455095293E-01   5   3   5   1
 -0.1007810327201102E-02   5   3   5   2
  0.5342916894945749E-01   5   3   5   3
 -0.1075322997028781E+00  10   6   5   1
 -0.2239789605802450E-01  10   6   5   2
 -0.7226770909049775E-02  10   6   5   3
  0.1011374595457729E+00  10   6  10   6
 -0.4998046229700624E-01  10   7   5   1
  0.2854471161893865E-02  10   7   5   2
 -0.2120306915577201E-02  10   7   5   3
  0.4021150037011197E-01  10   7  10   6
  0.2821455536790459E-01  10   7  10   7
  0.5884925008606173E-02  10   8   5   1
 -0.1187091031771868E-01  10   8   5   2
  0.2073207488622069E-01  10   8   5   3
  0.1611406055740472E-01  10   8  10   6
  0.7304267011349754E-03  10   8  10   7
  0.2437024774146308E-01  10   8  10   8
  0.4996134105811297E-01   5   4   5   4
  0.3799279095976128E-01  10   9   5   4
  0.4147540292222841E-01  10   9  10   9
  0.1765493928051792E+00   6   1   6   1
  0.9500111443993292E-02   6   2   6   1
  0.6228009452348395E-01   6   2   6   2
 -0.1333773015165098E+00   6   3   6   1
 -0.3096581885459310E-01   6   3   6   2
  0.1433150953109447E+00   6   3   6   3
  0.1426835481344073E+00   7   1   6   1
 -0.2577880770386922E-01   7   1   6   2
 -0.9790152153063271E-01   7   1   6   3
  0.1338420803929137E+00   7   1   7   1
 -0.9821458207818885E-01   7   2   6   1
 -0.1886387511885657E-01   7   2   6   2
  0.6645452181476380E-01   7   2   6   3
 -0.7192781277323179E-01   7   2   7   1
  0.7711842433866935E-01   7   2   7   2
 -0.1012299530962028E+00   7   3   6   1
 -0.8891669138478584E-02   7   3   6   2
  0.9954803585540589E-01   7   3   6   3
 -0.8224558073706373E-01   7   3   7   1
  0.5118139893017318E-01   7   3   7   2
  0.7919703197372317E-01   7   3   7   3
 -0.7914256118222721E-01   8   1   6   1
  0.5158184570396328E-01   8   1   6   2
  0.1030503003881273E-01   8   1   6   3
 -0.9222993007674854E-01   8   1   7   1
  0.5447417117866065E-01   8   1   7   2
  0.2244133187257178E-01   8   1   7   3
  0.1230601720741701E+00   8   1   8   1
  0.1107061689895240E+00   8   2   6   1
 -0.1250320442503945E-01   8   2   6   2
 -0.7922631264513842E-01   8   2   6   3
  0.9971366298677301E-01   8   2   7   1
 -0.6209208252016308E-01   8   2   7   2
 -0.5740427924730366E-01   8   2   7   3
 -0.7536343420870566E-01   8   2   8   1
  0.9006622051467934E-01   8   2   8   2
 -0.9902851913283117E-01   8   3   6   1
 -0.5695941156778163E-01   8   3   6   2
  0.1202162049837714E+00   8   3   6   3
 -0.5430266910529735E-01   8   3   7   1
  0.4849318608053056E-01   8   3   7   2
  0.7069046394700612E-01   8   3   7   3
 -0.2842672588181173E-01   8   3   8   1
 -0.5281788688874402E-01   8   3   8   2
  0.1439433559113301E+00   8   3   8   3
 -0.1538999092865442E+00   9   4   6   1
 -0.3300076992486969E-01   9   4   6   2
  0.1147293874421539E+00   9   4   6   3
 -0.1086773247068246E+00   9   4   7   1
  0.7874395661489821E-01   9   4   7   2
  0.8149541206134821E-01   9   4   7   3
  0.4129151794021497E-01   9   4   8   1
 -0.7909327169674181E-01   9   4   8   2
  0.1025821498422060E+00   9   4   8   3
  0.1944027418214271E+00   9   4   9   4
 -0.1538999092865442E+00  10   5   6   1
 -0.3300076992486969E-01  10   5   6   2
  0.1147293874421539E+00  10   5   6   3
 -0.1086773247068246E+00  10   5   7   1
  0.7874395661489821E-01  10   5   7   2
  0.8149541206134821E-01  10   5   7   3
  0.4129151794021497E-01  10   5   8   1
 -0.7909327169674181E-01  10   5   8   2
  0.1025821498422060E+00  10   5   8   3
  0.1429763769095267E+00  10   5   9   4
  0.1944027418214271E+00  10   5  10   5
  0.4711531337797602E-01   6   4   6   4
  0.2422378814792859E-01   7   4   6   4
  0.1870225310388116E-01   7   4   7   4
 -0.6996985349062543E-03   8   4   6   4
 -0.5374111716065991E-02   8   4   7   4
  0.1509523652238944E-01   8   4   8   4
 -0.5616870846996765E-01   9   1   6   4
 -0.3124646366076658E-01   9   1   7   4
  0.4129176605336141E-02   9   1   8   4
  0.6820969697425354E-01   9   1   9   1
 -0.1551336815763043E-01   9   2   6   4
  0.1108529747377690E-02   9   2   7   4
 -0.9478345083312011E-02   9   2   8   4
  0.1483170766386072E-01   9   2   9   1
  0.1900547216131815E-01   9   2   9   2
  0.2744071397611882E-01   9   3   6   4
  0.1351224413092384E-01   9   3   7   4
  0.1332689443832180E-01   9   3   8   4
 -0.3013740333610287E-01   9   3   9   1
 -0.1251487590951067E-01   9   3   9   2
  0.3558462872661883E-01   9   3   9   3
  0.4711531337797602E-01   6   5   6   5
  0.2422378814792859E-01   7   5   6   5
  0.1870225310388116E-01   7   5   7   5
 -0.6996985349062543E-03   8   5   6   5
 -0.5374111716065991E-02   8   5   7   5
  0.1509523652238944E-01   8   5   8   5
 -0.5616870846996765E-01  10   1   6   5
 -0.3124646366076658E-01  10   1   7   5
  0.4129176605336141E-02  10   1   8   5
  0.6820969697425354E-01  10   1  10   1
 -0.1551336815763043E-01  10   2   6   5
  0.1108529747377690E-02  10   2   7   5
 -0.9478345083312011E-02  10   2   8   5
  0.1483170766386072E-01  10   2  10   1
  0.1900547216131815E-01  10   2  10   2
  0.2744071397611882E-01  10   3   6   5
  0.1351224413092384E-01  10   3   7   5
  0.1332689443832180E-01  10   3   8   5
 -0.3013740333610287E-01  10   3  10   1
 -0.1251487590951067E-01  10   3  10   2
  0.3558462872661883E-01  10   3  10   3
  0.2571318244730381E-01   9   5   9   5
  0.2571318244730381E-01  10   4   9   5
  0.2571318244730381E-01  10   4  10   4
 -0.4306359472267623E+01   1   1   0   0
  0.4675897238289233E+00   2   1   0   0
 -0.1421925166053510E+01   2   2   0   0
 -0.1087117898994339E+00   3   1   0   0
  0.1342622486785940E+00   3   2   0   0
  0.2005752267141385E+00   3   3   0   0
 -0.1203642144178122E+01   4   4   0   0
 -0.1203642144178122E+01   5   5   0   0
 -0.2372057562598791E+01   6   6   0   0
 -0.6290704764109808E+00   7   6   0   0
 -0.1057958400271469E+01   7   7   0   0
  0.1776465480154625E+00   8   6   0   0
  0.5259403307685464E+00   8   7   0   0
  0.2354584396324588E+01   8   8   0   0
  0.3411217881985701E+00   9   9   0   0
  0.3411217881985701E+00  10  10   0   0
  0.4000000000000000E+01   0   0   0   0
