 &FCI NORB= 30,NELEC=  5,MS2= 1,
  ORBSYM=1,1,1,1,1,1,1,1,1,1,1,1,1,2,2,2,2,2,2,2,3,3,3,3,3,3,3,4,4,4,

  ISYM=2,
 /
  0.2905130431213108E+01   1   1   1   1
 -0.2376505896318902E+00   2   1   1   1
  0.3293608777720502E-01   2   1   2   1
  0.6488317791573325E+00   2   2   1   1
 -0.6288076097250952E-02   2   2   2   1
  0.4654596056600685E+00   2   2   2   2
  0.0000000000000000E+00   3   1   1   1
  0.0000000000000000E+00   3   1   2   1
  0.0000000000000000E+00   3   1   2   2
  0.1720360652763728E-01   3   1   3   1
  0.0000000000000000E+00   3   2   1   1
  0.0000000000000000E+00   3   2   2   1
  0.0000000000000000E+00   3   2   2   2
  0.1987325728847532E-01   3   2   3   1
  0.1019035084740447E+00   3   2   3   2
  0.6732675348391243E+00   3   3   1   1
 -0.4179516206806760E-02   3   3   2   1
  0.4758246365342977E+00   3   3   2   2
  0.0000000000000000E+00   3   3   3   1
  0.0000000000000000E+00   3   3   3   2
  0.5256468558728664E+00   3   3   3   3
  0.0000000000000000E+00   4   1   1   1
  0.0000000000000000E+00   4   1   2   1
  0.0000000000000000E+00   4   1   2   2
 -0.6654142908596842E-02   4   1   3   1
 -0.8194561275242176E-02   4   1   3   2
  0.0000000000000000E+00   4   1   3   3
  0.2579020131278145E-02   4   1   4   1
  0.0000000000000000E+00   4   2   1   1
  0.0000000000000000E+00   4   2   2   1
  0.0000000000000000E+00   4   2   2   2
 -0.5850032468098446E-02   4   2   3   1
 -0.1556238015935476E-01   4   2   3   2
  0.0000000000000000E+00   4   2   3   3
  0.2278556077990715E-02   4   2   4   1
  0.9725923874939743E-02   4   2   4   2
 -0.1430216514496319E+00   4   3   1   1
  0.1645598420388346E-02   4   3   2   1
 -0.6773681020168167E-01   4   3   2   2
  0.0000000000000000E+00   4   3   3   1
  0.0000000000000000E+00   4   3   3   2
 -0.7949503170973550E-01   4   3   3   3
  0.0000000000000000E+00   4   3   4   1
  0.0000000000000000E+00   4   3   4   2
  0.2681684238816615E-01   4   3   4   3
  0.2859345758674273E+00   4   4   1   1
 -0.6239025988685209E-03   4   4   2   1
  0.2549575360242413E+00   4   4   2   2
  0.0000000000000000E+00   4   4   3   1
  0.0000000000000000E+00   4   4   3   2
  0.2685808001166566E+00   4   4   3   3
  0.0000000000000000E+00   4   4   4   1
  0.0000000000000000E+00   4   4   4   2
 -0.9372810337692404E-02   4   4   4   3
  0.2264444766000033E+00   4   4   4   4
  0.1919990103477578E+00   5   1   1   1
 -0.2511073999738985E-01   5   1   2   1
  0.7097252174170177E-02   5   1   2   2
  0.0000000000000000E+00   5   1   3   1
  0.0000000000000000E+00   5   1   3   2
  0.6052588469167804E-02   5   1   3   3
  0.0000000000000000E+00   5   1   4   1
  0.0000000000000000E+00   5   1   4   2
 -0.2275537740531395E-02   5   1   4   3
  0.9224407871147140E-03   5   1   4   4
  0.1944569338167169E-01   5   1   5   1
 -0.2230052089076628E+00   5   2   1   1
  0.4750103645683114E-02   5   2   2   1
 -0.9619250359897140E-01   5   2   2   2
  0.0000000000000000E+00   5   2   3   1
  0.0000000000000000E+00   5   2   3   2
 -0.1020423258487003E+00   5   2   3   3
  0.0000000000000000E+00   5   2   4   1
  0.0000000000000000E+00   5   2   4   2
  0.3316891882254050E-01   5   2   4   3
 -0.1653174135944557E-01   5   2   4   4
 -0.5007967607406523E-02   5   2   5   1
  0.4986766396129408E-01   5   2   5   2
  0.0000000000000000E+00   5   3   1   1
  0.0000000000000000E+00   5   3   2   1
  0.0000000000000000E+00   5   3   2   2
 -0.1008667238817469E-01   5   3   3   1
 -0.2643286138636269E-01   5   3   3   2
  0.0000000000000000E+00   5   3   3   3
  0.3969156281218127E-02   5   3   4   1
  0.1375913944784622E-01   5   3   4   2
  0.0000000000000000E+00   5   3   4   3
  0.0000000000000000E+00   5   3   4   4
  0.0000000000000000E+00   5   3   5   1
  0.0000000000000000E+00   5   3   5   2
  0.2100258718716798E-01   5   3   5   3
  0.0000000000000000E+00   5   4   1   1
  0.0000000000000000E+00   5   4   2   1
  0.0000000000000000E+00   5   4   2   2
  0.6951506423840285E-02   5   4   3   1
  0.4647411210009316E-01   5   4   3   2
  0.0000000000000000E+00   5   4   3   3
 -0.3038570427461236E-02   5   4   4   1
  0.4247819513969689E-02   5   4   4   2
  0.0000000000000000E+00   5   4   4   3
  0.0000000000000000E+00   5   4   4   4
  0.0000000000000000E+00   5   4   5   1
  0.0000000000000000E+00   5   4   5   2
  0.3959352870850700E-03   5   4   5   3
  0.4412560547888406E-01   5   4   5   4
  0.4338501496589732E+00   5   5   1   1
 -0.3593157918633323E-02   5   5   2   1
  0.3341352726576113E+00   5   5   2   2
  0.0000000000000000E+00   5   5   3   1
  0.0000000000000000E+00   5   5   3   2
  0.3395758189387929E+00   5   5   3   3
  0.0000000000000000E+00   5   5   4   1
  0.0000000000000000E+00   5   5   4   2
 -0.3133023239988762E-01   5   5   4   3
  0.2295838819505335E+00   5   5   4   4
  0.3907571560831088E-02   5   5   5   1
 -0.4444778713097991E-01   5   5   5   2
  0.0000000000000000E+00   5   5   5   3
  0.0000000000000000E+00   5   5   5   4
  0.2736173709280362E+00   5   5   5   5
  0.0000000000000000E+00   6   1   1   1
  0.0000000000000000E+00   6   1   2   1
  0.0000000000000000E+00   6   1   2   2
  0.0000000000000000E+00   6   1   3   1
  0.0000000000000000E+00   6   1   3   2
  0.6622186383288420E-03   6   1   3   3
  0.0000000000000000E+00   6   1   4   1
  0.0000000000000000E+00   6   1   4   2
 -0.3037485705937920E-03   6   1   4   3
  0.3025888947730541E-04   6   1   4   4
  0.0000000000000000E+00   6   1   5   1
  0.0000000000000000E+00   6   1   5   2
  0.0000000000000000E+00   6   1   5   3
  0.0000000000000000E+00   6   1   5   4
  0.0000000000000000E+00   6   1   5   5
  0.3333940378490012E-04   6   1   6   1
  0.0000000000000000E+00   6   2   1   1
  0.0000000000000000E+00   6   2   2   1
  0.0000000000000000E+00   6   2   2   2
  0.0000000000000000E+00   6   2   3   1
  0.0000000000000000E+00   6   2   3   2
  0.2661588289208649E-01   6   2   3   3
  0.0000000000000000E+00   6   2   4   1
  0.0000000000000000E+00   6   2   4   2
 -0.1517295037302226E-02   6   2   4   3
  0.1318588052651772E-01   6   2   4   4
  0.0000000000000000E+00   6   2   5   1
  0.0000000000000000E+00   6   2   5   2
  0.0000000000000000E+00   6   2   5   3
  0.0000000000000000E+00   6   2   5   4
  0.0000000000000000E+00   6   2   5   5
  0.1380359426723161E-03   6   2   6   1
  0.2523271929411416E-01   6   2   6   2
  0.0000000000000000E+00   6   3   1   1
  0.0000000000000000E+00   6   3   2   1
  0.0000000000000000E+00   6   3   2   2
  0.7787039255440991E-02   6   3   3   1
  0.5988368080350455E-01   6   3   3   2
  0.0000000000000000E+00   6   3   3   3
 -0.3344981275690263E-02   6   3   4   1
 -0.2929371419976893E-02   6   3   4   2
  0.0000000000000000E+00   6   3   4   3
  0.0000000000000000E+00   6   3   4   4
  0.0000000000000000E+00   6   3   5   1
  0.0000000000000000E+00   6   3   5   2
 -0.6030692716394988E-02   6   3   5   3
  0.3438911157778195E-01   6   3   5   4
  0.0000000000000000E+00   6   3   5   5
  0.0000000000000000E+00   6   3   6   1
  0.0000000000000000E+00   6   3   6   2
  0.5244003978007675E-01   6   3   6   3
  0.0000000000000000E+00   6   4   1   1
  0.0000000000000000E+00   6   4   2   1
  0.0000000000000000E+00   6   4   2   2
 -0.9816193023057821E-04   6   4   3   1
  0.1187371399463570E-01   6   4   3   2
  0.0000000000000000E+00   6   4   3   3
 -0.1088395847665732E-03   6   4   4   1
  0.7226371351830147E-02   6   4   4   2
  0.0000000000000000E+00   6   4   4   3
  0.0000000000000000E+00   6   4   4   4
  0.0000000000000000E+00   6   4   5   1
  0.0000000000000000E+00   6   4   5   2
  0.8054287523569615E-02   6   4   5   3
  0.2090016386813670E-01   6   4   5   4
  0.0000000000000000E+00   6   4   5   5
  0.0000000000000000E+00   6   4   6   1
  0.0000000000000000E+00   6   4   6   2
  0.1683407446421967E-01   6   4   6   3
  0.1771811477525525E-01   6   4   6   4
  0.0000000000000000E+00   6   5   1   1
  0.0000000000000000E+00   6   5   2   1
  0.0000000000000000E+00   6   5   2   2
  0.0000000000000000E+00   6   5   3   1
  0.0000000000000000E+00   6   5   3   2
  0.5484010362911694E-02   6   5   3   3
  0.0000000000000000E+00   6   5   4   1
  0.0000000000000000E+00   6   5   4   2
  0.4999504071450543E-02   6   5   4   3
  0.1311351270192463E-01   6   5   4   4
  0.0000000000000000E+00   6   5   5   1
  0.0000000000000000E+00   6   5   5   2
  0.0000000000000000E+00   6   5   5   3
  0.0000000000000000E+00   6   5   5   4
  0.0000000000000000E+00   6   5   5   5
 -0.2071839053729014E-03   6   5   6   1
  0.1160779405670913E-01   6   5   6   2
  0.0000000000000000E+00   6   5   6   3
  0.0000000000000000E+00   6   5   6   4
  0.1442618893613406E-01   6   5   6   5
  0.3693692342384472E+00   6   6   1   1
  0.2023216212016822E-03   6   6   2   1
  0.3480956561144947E+00   6   6   2   2
  0.0000000000000000E+00   6   6   3   1
  0.0000000000000000E+00   6   6   3   2
  0.3684635742287565E+00   6   6   3   3
  0.0000000000000000E+00   6   6   4   1
  0.0000000000000000E+00   6   6   4   2
 -0.2463813056935409E-01   6   6   4   3
  0.2483017374111060E+00   6   6   4   4
  0.4280722707071249E-03   6   6   5   1
 -0.3284403495149407E-01   6   6   5   2
  0.0000000000000000E+00   6   6   5   3
  0.0000000000000000E+00   6   6   5   4
  0.2816532163418586E+00   6   6   5   5
 -0.1640592052060630E-04   6   6   6   1
  0.1901913609054955E-01   6   6   6   2
  0.0000000000000000E+00   6   6   6   3
  0.0000000000000000E+00   6   6   6   4
  0.1213508498793702E-01   6   6   6   5
  0.3383268174920616E+00   6   6   6   6
  0.0000000000000000E+00   7   1   1   1
  0.0000000000000000E+00   7   1   2   1
  0.0000000000000000E+00   7   1   2   2
  0.0000000000000000E+00   7   1   3   1
  0.0000000000000000E+00   7   1   3   2
  0.0000000000000000E+00   7   1   3   3
  0.0000000000000000E+00   7   1   4   1
  0.0000000000000000E+00   7   1   4   2
  0.0000000000000000E+00   7   1   4   3
  0.0000000000000000E+00   7   1   4   4
  0.0000000000000000E+00   7   1   5   1
  0.0000000000000000E+00   7   1   5   2
  0.0000000000000000E+00   7   1   5   3
  0.0000000000000000E+00   7   1   5   4
  0.0000000000000000E+00   7   1   5   5
  0.0000000000000000E+00   7   1   6   1
  0.0000000000000000E+00   7   1   6   2
  0.0000000000000000E+00   7   1   6   3
  0.0000000000000000E+00   7   1   6   4
  0.0000000000000000E+00   7   1   6   5
  0.0000000000000000E+00   7   1   6   6
  0.3449871983449439E-04   7   1   7   1
  0.0000000000000000E+00   7   2   1   1
  0.0000000000000000E+00   7   2   2   1
  0.0000000000000000E+00   7   2   2   2
  0.0000000000000000E+00   7   2   3   1
  0.0000000000000000E+00   7   2   3   2
  0.0000000000000000E+00   7   2   3   3
  0.0000000000000000E+00   7   2   4   1
  0.0000000000000000E+00   7   2   4   2
  0.0000000000000000E+00   7   2   4   3
  0.0000000000000000E+00   7   2   4   4
  0.0000000000000000E+00   7   2   5   1
  0.0000000000000000E+00   7   2   5   2
  0.0000000000000000E+00   7   2   5   3
  0.0000000000000000E+00   7   2   5   4
  0.0000000000000000E+00   7   2   5   5
  0.0000000000000000E+00   7   2   6   1
  0.0000000000000000E+00   7   2   6   2
  0.0000000000000000E+00   7   2   6   3
  0.0000000000000000E+00   7   2   6   4
  0.0000000000000000E+00   7   2   6   5
  0.0000000000000000E+00   7   2   6   6
  0.1442797863155537E-03   7   2   7   1
  0.2530730873775755E-01   7   2   7   2
  0.0000000000000000E+00   7   3   1   1
  0.0000000000000000E+00   7   3   2   1
  0.0000000000000000E+00   7   3   2   2
  0.0000000000000000E+00   7   3   3   1
  0.0000000000000000E+00   7   3   3   2
  0.0000000000000000E+00   7   3   3   3
  0.0000000000000000E+00   7   3   4   1
  0.0000000000000000E+00   7   3   4   2
  0.0000000000000000E+00   7   3   4   3
  0.0000000000000000E+00   7   3   4   4
  0.0000000000000000E+00   7   3   5   1
  0.0000000000000000E+00   7   3   5   2
  0.0000000000000000E+00   7   3   5   3
  0.0000000000000000E+00   7   3   5   4
  0.0000000000000000E+00   7   3   5   5
  0.0000000000000000E+00   7   3   6   1
  0.0000000000000000E+00   7   3   6   2
  0.0000000000000000E+00   7   3   6   3
  0.0000000000000000E+00   7   3   6   4
  0.0000000000000000E+00   7   3   6   5
  0.0000000000000000E+00   7   3   6   6
  0.0000000000000000E+00   7   3   7   1
  0.0000000000000000E+00   7   3   7   2
  0.5962473163288372E-02   7   3   7   3
  0.0000000000000000E+00   7   4   1   1
  0.0000000000000000E+00   7   4   2   1
  0.0000000000000000E+00   7   4   2   2
  0.0000000000000000E+00   7   4   3   1
  0.0000000000000000E+00   7   4   3   2
  0.0000000000000000E+00   7   4   3   3
  0.0000000000000000E+00   7   4   4   1
  0.0000000000000000E+00   7   4   4   2
  0.0000000000000000E+00   7   4   4   3
  0.0000000000000000E+00   7   4   4   4
  0.0000000000000000E+00   7   4   5   1
  0.0000000000000000E+00   7   4   5   2
  0.0000000000000000E+00   7   4   5   3
  0.0000000000000000E+00   7   4   5   4
  0.0000000000000000E+00   7   4   5   5
  0.0000000000000000E+00   7   4   6   1
  0.0000000000000000E+00   7   4   6   2
  0.0000000000000000E+00   7   4   6   3
  0.0000000000000000E+00   7   4   6   4
  0.0000000000000000E+00   7   4   6   5
  0.0000000000000000E+00   7   4   6   6
  0.0000000000000000E+00   7   4   7   1
  0.0000000000000000E+00   7   4   7   2
  0.1687352138975191E-02   7   4   7   3
  0.2537270175821682E-02   7   4   7   4
  0.0000000000000000E+00   7   5   1   1
  0.0000000000000000E+00   7   5   2   1
  0.0000000000000000E+00   7   5   2   2
  0.0000000000000000E+00   7   5   3   1
  0.0000000000000000E+00   7   5   3   2
  0.0000000000000000E+00   7   5   3   3
  0.0000000000000000E+00   7   5   4   1
  0.0000000000000000E+00   7   5   4   2
  0.0000000000000000E+00   7   5   4   3
  0.0000000000000000E+00   7   5   4   4
  0.0000000000000000E+00   7   5   5   1
  0.0000000000000000E+00   7   5   5   2
  0.0000000000000000E+00   7   5   5   3
  0.0000000000000000E+00   7   5   5   4
  0.0000000000000000E+00   7   5   5   5
  0.0000000000000000E+00   7   5   6   1
  0.0000000000000000E+00   7   5   6   2
  0.0000000000000000E+00   7   5   6   3
  0.0000000000000000E+00   7   5   6   4
  0.0000000000000000E+00   7   5   6   5
  0.0000000000000000E+00   7   5   6   6
 -0.2091473141644912E-03   7   5   7   1
  0.1156109610596272E-01   7   5   7   2
  0.0000000000000000E+00   7   5   7   3
  0.0000000000000000E+00   7   5   7   4
  0.1440233148745304E-01   7   5   7   5
  0.0000000000000000E+00   7   6   1   1
  0.0000000000000000E+00   7   6   2   1
  0.0000000000000000E+00   7   6   2   2
  0.0000000000000000E+00   7   6   3   1
  0.0000000000000000E+00   7   6   3   2
  0.0000000000000000E+00   7   6   3   3
  0.0000000000000000E+00   7   6   4   1
  0.0000000000000000E+00   7   6   4   2
  0.0000000000000000E+00   7   6   4   3
  0.0000000000000000E+00   7   6   4   4
  0.0000000000000000E+00   7   6   5   1
  0.0000000000000000E+00   7   6   5   2
  0.0000000000000000E+00   7   6   5   3
  0.0000000000000000E+00   7   6   5   4
  0.0000000000000000E+00   7   6   5   5
  0.0000000000000000E+00   7   6   6   1
  0.0000000000000000E+00   7   6   6   2
  0.0000000000000000E+00   7   6   6   3
  0.0000000000000000E+00   7   6   6   4
  0.0000000000000000E+00   7   6   6   5
  0.0000000000000000E+00   7   6   6   6
  0.1398771662387085E-04   7   6   7   1
 -0.1904028651036369E-01   7   6   7   2
  0.0000000000000000E+00   7   6   7   3
  0.0000000000000000E+00   7   6   7   4
 -0.1210108658976764E-01   7   6   7   5
  0.2023155911639845E-01   7   6   7   6
  0.3697931944055925E+00   7   7   1   1
  0.2026576403828201E-03   7   7   2   1
  0.3483576279921333E+00   7   7   2   2
  0.0000000000000000E+00   7   7   3   1
  0.0000000000000000E+00   7   7   3   2
  0.3343090899926139E+00   7   7   3   3
  0.0000000000000000E+00   7   7   4   1
  0.0000000000000000E+00   7   7   4   2
 -0.2691053338129450E-01   7   7   4   3
  0.2244837890355832E+00   7   7   4   4
  0.4306807425858566E-03   7   7   5   1
 -0.3296880285429182E-01   7   7   5   2
  0.0000000000000000E+00   7   7   5   3
  0.0000000000000000E+00   7   7   5   4
  0.2817637230233392E+00   7   7   5   5
  0.1568111744372051E-04   7   7   6   1
 -0.1902708036041456E-01   7   7   6   2
  0.0000000000000000E+00   7   7   6   3
  0.0000000000000000E+00   7   7   6   4
 -0.1211790470063775E-01   7   7   6   5
  0.2979593773243709E+00   7   7   6   6
  0.0000000000000000E+00   7   7   7   1
  0.0000000000000000E+00   7   7   7   2
  0.0000000000000000E+00   7   7   7   3
  0.0000000000000000E+00   7   7   7   4
  0.0000000000000000E+00   7   7   7   5
  0.0000000000000000E+00   7   7   7   6
  0.3385187820024400E+00   7   7   7   7
  0.0000000000000000E+00   8   1   1   1
  0.0000000000000000E+00   8   1   2   1
  0.0000000000000000E+00   8   1   2   2
 -0.3533692783858910E-01   8   1   3   1
 -0.3397853526146506E-01   8   1   3   2
  0.0000000000000000E+00   8   1   3   3
  0.1359679163387510E-01   8   1   4   1
  0.9924813628996325E-02   8   1   4   2
  0.0000000000000000E+00   8   1   4   3
  0.0000000000000000E+00   8   1   4   4
  0.0000000000000000E+00   8   1   5   1
  0.0000000000000000E+00   8   1   5   2
  0.1709415123400272E-01   8   1   5   3
 -0.1205693913258849E-01   8   1   5   4
  0.0000000000000000E+00   8   1   5   5
  0.0000000000000000E+00   8   1   6   1
  0.0000000000000000E+00   8   1   6   2
 -0.1330579126373805E-01   8   1   6   3
  0.6181213469145415E-06   8   1   6   4
  0.0000000000000000E+00   8   1   6   5
  0.0000000000000000E+00   8   1   6   6
  0.0000000000000000E+00   8   1   7   1
  0.0000000000000000E+00   8   1   7   2
  0.0000000000000000E+00   8   1   7   3
  0.0000000000000000E+00   8   1   7   4
  0.0000000000000000E+00   8   1   7   5
  0.0000000000000000E+00   8   1   7   6
  0.0000000000000000E+00   8   1   7   7
  0.7415932692538600E-01   8   1   8   1
  0.0000000000000000E+00   8   2   1   1
  0.0000000000000000E+00   8   2   2   1
  0.0000000000000000E+00   8   2   2   2
 -0.9226788205689781E-02   8   2   3   1
  0.2463778347403481E-03   8   2   3   2
  0.0000000000000000E+00   8   2   3   3
  0.3568770939229904E-02   8   2   4   1
  0.8335871540438184E-02   8   2   4   2
  0.0000000000000000E+00   8   2   4   3
  0.0000000000000000E+00   8   2   4   4
  0.0000000000000000E+00   8   2   5   1
  0.0000000000000000E+00   8   2   5   2
  0.1487854827738741E-01   8   2   5   3
  0.6003304062748103E-02   8   2   5   4
  0.0000000000000000E+00   8   2   5   5
  0.0000000000000000E+00   8   2   6   1
  0.0000000000000000E+00   8   2   6   2
  0.1122379473801009E-01   8   2   6   3
  0.7603190328114112E-02   8   2   6   4
  0.0000000000000000E+00   8   2   6   5
  0.0000000000000000E+00   8   2   6   6
  0.0000000000000000E+00   8   2   7   1
  0.0000000000000000E+00   8   2   7   2
  0.0000000000000000E+00   8   2   7   3
  0.0000000000000000E+00   8   2   7   4
  0.0000000000000000E+00   8   2   7   5
  0.0000000000000000E+00   8   2   7   6
  0.0000000000000000E+00   8   2   7   7
  0.1617703906920048E-01   8   2   8   1
  0.2314140469308805E-01   8   2   8   2
 -0.3116013288894131E+00   8   3   1   1
  0.9962070077569772E-02   8   3   2   1
 -0.7248600147262883E-01   8   3   2   2
  0.0000000000000000E+00   8   3   3   1
  0.0000000000000000E+00   8   3   3   2
 -0.8485390235672102E-01   8   3   3   3
  0.0000000000000000E+00   8   3   4   1
  0.0000000000000000E+00   8   3   4   2
  0.3738985770114561E-01   8   3   4   3
 -0.9839608398255130E-02   8   3   4   4
 -0.1017853948026344E-01   8   3   5   1
  0.5079844149538222E-01   8   3   5   2
  0.0000000000000000E+00   8   3   5   3
  0.0000000000000000E+00   8   3   5   4
 -0.3696367759518878E-01   8   3   5   5
 -0.6267874896378572E-03   8   3   6   1
  0.7195054598717230E-02   8   3   6   2
  0.0000000000000000E+00   8   3   6   3
  0.0000000000000000E+00   8   3   6   4
  0.6908630980152188E-02   8   3   6   5
 -0.8760206302700599E-03   8   3   6   6
  0.0000000000000000E+00   8   3   7   1
  0.0000000000000000E+00   8   3   7   2
  0.0000000000000000E+00   8   3   7   3
  0.0000000000000000E+00   8   3   7   4
  0.0000000000000000E+00   8   3   7   5
  0.0000000000000000E+00   8   3   7   6
 -0.1550388543894017E-01   8   3   7   7
  0.0000000000000000E+00   8   3   8   1
  0.0000000000000000E+00   8   3   8   2
  0.9503842534978768E-01   8   3   8   3
  0.1649011056425896E+00   8   4   1   1
 -0.3755049792451339E-02   8   4   2   1
  0.6695985341586164E-01   8   4   2   2
  0.0000000000000000E+00   8   4   3   1
  0.0000000000000000E+00   8   4   3   2
  0.7738185638428341E-01   8   4   3   3
  0.0000000000000000E+00   8   4   4   1
  0.0000000000000000E+00   8   4   4   2
 -0.2111010492951765E-01   8   4   4   3
  0.1564586605088214E-01   8   4   4   4
  0.4004743312618228E-02   8   4   5   1
 -0.2752849189322834E-01   8   4   5   2
  0.0000000000000000E+00   8   4   5   3
  0.0000000000000000E+00   8   4   5   4
  0.3693010249650295E-01   8   4   5   5
  0.2486550544535428E-03   8   4   6   1
  0.2084408932784320E-02   8   4   6   2
  0.0000000000000000E+00   8   4   6   3
  0.0000000000000000E+00   8   4   6   4
 -0.9542369460502413E-03   8   4   6   5
  0.3428621372095000E-01   8   4   6   6
  0.0000000000000000E+00   8   4   7   1
  0.0000000000000000E+00   8   4   7   2
  0.0000000000000000E+00   8   4   7   3
  0.0000000000000000E+00   8   4   7   4
  0.0000000000000000E+00   8   4   7   5
  0.0000000000000000E+00   8   4   7   6
  0.3249742199544708E-01   8   4   7   7
  0.0000000000000000E+00   8   4   8   1
  0.0000000000000000E+00   8   4   8   2
 -0.3654724401024155E-01   8   4   8   3
  0.2331417805975011E-01   8   4   8   4
  0.0000000000000000E+00   8   5   1   1
  0.0000000000000000E+00   8   5   2   1
  0.0000000000000000E+00   8   5   2   2
  0.1022183396714419E-01   8   5   3   1
  0.3479542072936759E-01   8   5   3   2
  0.0000000000000000E+00   8   5   3   3
 -0.4153389910523093E-02   8   5   4   1
 -0.7530107796348542E-02   8   5   4   2
  0.0000000000000000E+00   8   5   4   3
  0.0000000000000000E+00   8   5   4   4
  0.0000000000000000E+00   8   5   5   1
  0.0000000000000000E+00   8   5   5   2
 -0.1265121600922036E-01   8   5   5   3
  0.1276706669857362E-01   8   5   5   4
  0.0000000000000000E+00   8   5   5   5
  0.0000000000000000E+00   8   5   6   1
  0.0000000000000000E+00   8   5   6   2
  0.1772980230267766E-01   8   5   6   3
  0.2126952699084226E-02   8   5   6   4
  0.0000000000000000E+00   8   5   6   5
  0.0000000000000000E+00   8   5   6   6
  0.0000000000000000E+00   8   5   7   1
  0.0000000000000000E+00   8   5   7   2
  0.0000000000000000E+00   8   5   7   3
  0.0000000000000000E+00   8   5   7   4
  0.0000000000000000E+00   8   5   7   5
  0.0000000000000000E+00   8   5   7   6
  0.0000000000000000E+00   8   5   7   7
 -0.1756169241126253E-01   8   5   8   1
 -0.7093918925270069E-02   8   5   8   2
  0.0000000000000000E+00   8   5   8   3
  0.0000000000000000E+00   8   5   8   4
  0.1667230080571232E-01   8   5   8   5
  0.0000000000000000E+00   8   6   1   1
  0.0000000000000000E+00   8   6   2   1
  0.0000000000000000E+00   8   6   2   2
  0.1478602295747017E-02   8   6   3   1
  0.3041328690868840E-01   8   6   3   2
  0.0000000000000000E+00   8   6   3   3
 -0.7530262544178382E-03   8   6   4   1
  0.1241301786405315E-02   8   6   4   2
  0.0000000000000000E+00   8   6   4   3
  0.0000000000000000E+00   8   6   4   4
  0.0000000000000000E+00   8   6   5   1
  0.0000000000000000E+00   8   6   5   2
  0.2048035656719460E-02   8   6   5   3
  0.1852231365969438E-01   8   6   5   4
  0.0000000000000000E+00   8   6   5   5
  0.0000000000000000E+00   8   6   6   1
  0.0000000000000000E+00   8   6   6   2
  0.3225074984290181E-01   8   6   6   3
  0.1171434205229733E-01   8   6   6   4
  0.0000000000000000E+00   8   6   6   5
  0.0000000000000000E+00   8   6   6   6
  0.0000000000000000E+00   8   6   7   1
  0.0000000000000000E+00   8   6   7   2
  0.0000000000000000E+00   8   6   7   3
  0.0000000000000000E+00   8   6   7   4
  0.0000000000000000E+00   8   6   7   5
  0.0000000000000000E+00   8   6   7   6
  0.0000000000000000E+00   8   6   7   7
 -0.2426999868744381E-02   8   6   8   1
  0.1297185666304120E-01   8   6   8   2
  0.0000000000000000E+00   8   6   8   3
  0.0000000000000000E+00   8   6   8   4
  0.7953025935772545E-02   8   6   8   5
  0.2371315395820476E-01   8   6   8   6
  0.0000000000000000E+00   8   7   1   1
  0.0000000000000000E+00   8   7   2   1
  0.0000000000000000E+00   8   7   2   2
  0.0000000000000000E+00   8   7   3   1
  0.0000000000000000E+00   8   7   3   2
  0.0000000000000000E+00   8   7   3   3
  0.0000000000000000E+00   8   7   4   1
  0.0000000000000000E+00   8   7   4   2
  0.0000000000000000E+00   8   7   4   3
  0.0000000000000000E+00   8   7   4   4
  0.0000000000000000E+00   8   7   5   1
  0.0000000000000000E+00   8   7   5   2
  0.0000000000000000E+00   8   7   5   3
  0.0000000000000000E+00   8   7   5   4
  0.0000000000000000E+00   8   7   5   5
  0.0000000000000000E+00   8   7   6   1
  0.0000000000000000E+00   8   7   6   2
  0.0000000000000000E+00   8   7   6   3
  0.0000000000000000E+00   8   7   6   4
  0.0000000000000000E+00   8   7   6   5
  0.0000000000000000E+00   8   7   6   6
  0.0000000000000000E+00   8   7   7   1
  0.0000000000000000E+00   8   7   7   2
  0.4032974137262674E-02   8   7   7   3
  0.1296919145384051E-02   8   7   7   4
  0.0000000000000000E+00   8   7   7   5
  0.0000000000000000E+00   8   7   7   6
  0.0000000000000000E+00   8   7   7   7
  0.0000000000000000E+00   8   7   8   1
  0.0000000000000000E+00   8   7   8   2
  0.0000000000000000E+00   8   7   8   3
  0.0000000000000000E+00   8   7   8   4
  0.0000000000000000E+00   8   7   8   5
  0.0000000000000000E+00   8   7   8   6
  0.3423875129822293E-02   8   7   8   7
  0.9388241029105083E+00   8   8   1   1
 -0.2147632424650621E-01   8   8   2   1
  0.4869184557491752E+00   8   8   2   2
  0.0000000000000000E+00   8   8   3   1
  0.0000000000000000E+00   8   8   3   2
  0.5374086038178696E+00   8   8   3   3
  0.0000000000000000E+00   8   8   4   1
  0.0000000000000000E+00   8   8   4   2
 -0.8914842831418864E-01   8   8   4   3
  0.2684167941227364E+00   8   8   4   4
  0.2161272034535050E-01   8   8   5   1
 -0.1186907932305860E+00   8   8   5   2
  0.0000000000000000E+00   8   8   5   3
  0.0000000000000000E+00   8   8   5   4
  0.3479764421223164E+00   8   8   5   5
  0.9012774954678792E-03   8   8   6   1
  0.1899347257652932E-01   8   8   6   2
  0.0000000000000000E+00   8   8   6   3
  0.0000000000000000E+00   8   8   6   4
  0.5270672586495446E-02   8   8   6   5
  0.3545998126494489E+00   8   8   6   6
  0.0000000000000000E+00   8   8   7   1
  0.0000000000000000E+00   8   8   7   2
  0.0000000000000000E+00   8   8   7   3
  0.0000000000000000E+00   8   8   7   4
  0.0000000000000000E+00   8   8   7   5
  0.0000000000000000E+00   8   8   7   6
  0.3293767452847315E+00   8   8   7   7
  0.0000000000000000E+00   8   8   8   1
  0.0000000000000000E+00   8   8   8   2
 -0.1435311687733103E+00   8   8   8   3
  0.9719050689484576E-01   8   8   8   4
  0.0000000000000000E+00   8   8   8   5
  0.0000000000000000E+00   8   8   8   6
  0.0000000000000000E+00   8   8   8   7
  0.6200179749197879E+00   8   8   8   8
  0.0000000000000000E+00   9   1   1   1
  0.0000000000000000E+00   9   1   2   1
  0.0000000000000000E+00   9   1   2   2
  0.0000000000000000E+00   9   1   3   1
  0.0000000000000000E+00   9   1   3   2
  0.0000000000000000E+00   9   1   3   3
  0.0000000000000000E+00   9   1   4   1
  0.0000000000000000E+00   9   1   4   2
  0.0000000000000000E+00   9   1   4   3
  0.0000000000000000E+00   9   1   4   4
  0.0000000000000000E+00   9   1   5   1
  0.0000000000000000E+00   9   1   5   2
  0.0000000000000000E+00   9   1   5   3
  0.0000000000000000E+00   9   1   5   4
  0.0000000000000000E+00   9   1   5   5
  0.0000000000000000E+00   9   1   6   1
  0.0000000000000000E+00   9   1   6   2
  0.2561384847145288E-03   9   1   6   3
 -0.1056121026264947E-03   9   1   6   4
  0.0000000000000000E+00   9   1   6   5
  0.0000000000000000E+00   9   1   6   6
  0.0000000000000000E+00   9   1   7   1
  0.0000000000000000E+00   9   1   7   2
  0.0000000000000000E+00   9   1   7   3
  0.0000000000000000E+00   9   1   7   4
  0.0000000000000000E+00   9   1   7   5
  0.0000000000000000E+00   9   1   7   6
  0.0000000000000000E+00   9   1   7   7
  0.0000000000000000E+00   9   1   8   1
  0.0000000000000000E+00   9   1   8   2
  0.0000000000000000E+00   9   1   8   3
  0.0000000000000000E+00   9   1   8   4
  0.0000000000000000E+00   9   1   8   5
 -0.7638650371207267E-04   9   1   8   6
  0.0000000000000000E+00   9   1   8   7
  0.0000000000000000E+00   9   1   8   8
  0.1071405259689555E-03   9   1   9   1
  0.0000000000000000E+00   9   2   1   1
  0.0000000000000000E+00   9   2   2   1
  0.0000000000000000E+00   9   2   2   2
  0.0000000000000000E+00   9   2   3   1
  0.0000000000000000E+00   9   2   3   2
  0.0000000000000000E+00   9   2   3   3
  0.0000000000000000E+00   9   2   4   1
  0.0000000000000000E+00   9   2   4   2
  0.0000000000000000E+00   9   2   4   3
  0.0000000000000000E+00   9   2   4   4
  0.0000000000000000E+00   9   2   5   1
  0.0000000000000000E+00   9   2   5   2
  0.0000000000000000E+00   9   2   5   3
  0.0000000000000000E+00   9   2   5   4
  0.0000000000000000E+00   9   2   5   5
  0.0000000000000000E+00   9   2   6   1
  0.0000000000000000E+00   9   2   6   2
  0.1534708849752759E-01   9   2   6   3
  0.1339631886110281E-02   9   2   6   4
  0.0000000000000000E+00   9   2   6   5
  0.0000000000000000E+00   9   2   6   6
  0.0000000000000000E+00   9   2   7   1
  0.0000000000000000E+00   9   2   7   2
  0.0000000000000000E+00   9   2   7   3
  0.0000000000000000E+00   9   2   7   4