 &FCI NORB= 30,NELEC=  5,MS2= 1,
  ORBSYM=1,1,1,1,1,1,1,1,2,2,2,2,2,3,3,3,3,3,4,4,5,5,5,5,5,6,6,7,7,8,

  ISYM=2,
 /
  0.2891132473203867E+01   1   1   1   1
 -0.2656556848090348E+00   2   1   1   1
  0.3913667175843192E-01   2   1   2   1
  0.6486996482067710E+00   2   2   1   1
 -0.9664560656677562E-02   2   2   2   1
  0.4592585294843162E+00   2   2   2   2
  0.3159390628483774E+00   3   1   1   1
 -0.4825881320314687E-01   3   1   2   1
  0.1041544501747947E-01   3   1   2   2
  0.5986230015527183E-01   3   1   3   1
 -0.2899469067926789E+00   3   2   1   1
  0.1217646469050754E-01   3   2   2   1
 -0.1029134890760804E+00   3   2   2   2
 -0.1345687813484055E-01   3   2   3   1
  0.6663573548598192E-01   3   2   3   2
  0.6064702235092450E+00   3   3   1   1
 -0.1562705453737051E-01   3   3   2   1
  0.3833235153568363E+00   3   3   2   2
  0.1741791482590609E-01   3   3   3   1
 -0.7877448302143750E-01   3   3   3   2
  0.3406823119123655E+00   3   3   3   3
  0.0000000000000000E+00   4   1   1   1
  0.0000000000000000E+00   4   1   2   1
  0.0000000000000000E+00   4   1   2   2
  0.0000000000000000E+00   4   1   3   1
  0.0000000000000000E+00   4   1   3   2
  0.0000000000000000E+00   4   1   3   3
  0.4273136020536444E-04   4   1   4   1
  0.0000000000000000E+00   4   2   1   1
  0.0000000000000000E+00   4   2   2   1
  0.0000000000000000E+00   4   2   2   2
  0.0000000000000000E+00   4   2   3   1
  0.0000000000000000E+00   4   2   3   2
  0.0000000000000000E+00   4   2   3   3
  0.4909732217151170E-03   4   2   4   1
  0.2562640394946747E-01   4   2   4   2
  0.0000000000000000E+00   4   3   1   1
  0.0000000000000000E+00   4   3   2   1
  0.0000000000000000E+00   4   3   2   2
  0.0000000000000000E+00   4   3   3   1
  0.0000000000000000E+00   4   3   3   2
  0.0000000000000000E+00   4   3   3   3
 -0.2648399065332897E-04   4   3   4   1
  0.1366209163003519E-01   4   3   4   2
  0.1497731654716585E-01   4   3   4   3
  0.3695867099006279E+00   4   4   1   1
 -0.9499030195512896E-04   4   4   2   1
  0.3470015347437115E+00   4   4   2   2
 -0.1951386547168789E-04   4   4   3   1
 -0.3219340987054214E-01   4   4   3   2
  0.3022259315694085E+00   4   4   3   3
  0.2497541414995252E-03   4   4   4   1
  0.1922779815415200E-01   4   4   4   2
  0.1330419146797379E-01   4   4   4   3
  0.3384245745876699E+00   4   4   4   4
  0.0000000000000000E+00   5   1   1   1
  0.0000000000000000E+00   5   1   2   1
  0.0000000000000000E+00   5   1   2   2
  0.0000000000000000E+00   5   1   3   1
  0.0000000000000000E+00   5   1   3   2
  0.0000000000000000E+00   5   1   3   3
  0.0000000000000000E+00   5   1   4   1
  0.0000000000000000E+00   5   1   4   2
  0.0000000000000000E+00   5   1   4   3
  0.0000000000000000E+00   5   1   4   4
  0.4415312018675550E-04   5   1   5   1
  0.0000000000000000E+00   5   2   1   1
  0.0000000000000000E+00   5   2   2   1
  0.0000000000000000E+00   5   2   2   2
  0.0000000000000000E+00   5   2   3   1
  0.0000000000000000E+00   5   2   3   2
  0.0000000000000000E+00   5   2   3   3
  0.0000000000000000E+00   5   2   4   1
  0.0000000000000000E+00   5   2   4   2
  0.0000000000000000E+00   5   2   4   3
  0.0000000000000000E+00   5   2   4   4
  0.4985485239310369E-03   5   2   5   1
  0.2570241471694842E-01   5   2   5   2
  0.0000000000000000E+00   5   3   1   1
  0.0000000000000000E+00   5   3   2   1
  0.0000000000000000E+00   5   3   2   2
  0.0000000000000000E+00   5   3   3   1
  0.0000000000000000E+00   5   3   3   2
  0.0000000000000000E+00   5   3   3   3
  0.0000000000000000E+00   5   3   4   1
  0.0000000000000000E+00   5   3   4   2
  0.0000000000000000E+00   5   3   4   3
  0.0000000000000000E+00   5   3   4   4
 -0.2941512271370271E-04   5   3   5   1
  0.1361687244790080E-01   5   3   5   2
  0.1495392903150723E-01   5   3   5   3
  0.0000000000000000E+00   5   4   1   1
  0.0000000000000000E+00   5   4   2   1
  0.0000000000000000E+00   5   4   2   2
  0.0000000000000000E+00   5   4   3   1
  0.0000000000000000E+00   5   4   3   2
  0.0000000000000000E+00   5   4   3   3
  0.0000000000000000E+00   5   4   4   1
  0.0000000000000000E+00   5   4   4   2
  0.0000000000000000E+00   5   4   4   3
  0.0000000000000000E+00   5   4   4   4
 -0.2525997078081922E-03   5   4   5   1
 -0.1924923657005146E-01   5   4   5   2
 -0.1327103120025113E-01   5   4   5   3
  0.2022755287837768E-01   5   4   5   4
  0.3700315973732496E+00   5   5   1   1
 -0.9699480642228050E-04   5   5   2   1
  0.3472717079092962E+00   5   5   2   2
 -0.1850529954824324E-04   5   5   3   1
 -0.3233471261318430E-01   5   5   3   2
  0.3023984400133486E+00   5   5   3   3
 -0.2506358720150505E-03   5   5   4   1
 -0.1923579309599030E-01   5   5   4   2
 -0.1328806140300998E-01   5   5   4   3
  0.2980699336318520E+00   5   5   4   4
  0.0000000000000000E+00   5   5   5   1
  0.0000000000000000E+00   5   5   5   2
  0.0000000000000000E+00   5   5   5   3
  0.0000000000000000E+00   5   5   5   4
  0.3386261723060830E+00   5   5   5   5
  0.0000000000000000E+00   6   1   1   1
  0.0000000000000000E+00   6   1   2   1
  0.0000000000000000E+00   6   1   2   2
  0.0000000000000000E+00   6   1   3   1
  0.0000000000000000E+00   6   1   3   2
  0.0000000000000000E+00   6   1   3   3
  0.3305136322455768E-03   6   1   4   1
  0.2475643364100139E-02   6   1   4   2
 -0.4699959825247488E-03   6   1   4   3
  0.1126643879233234E-02   6   1   4   4
  0.0000000000000000E+00   6   1   5   1
  0.0000000000000000E+00   6   1   5   2
  0.0000000000000000E+00   6   1   5   3
  0.0000000000000000E+00   6   1   5   4
 -0.1131760983424507E-02   6   1   5   5
  0.2811037263241771E-02   6   1   6   1
  0.0000000000000000E+00   6   2   1   1
  0.0000000000000000E+00   6   2   2   1
  0.0000000000000000E+00   6   2   2   2
  0.0000000000000000E+00   6   2   3   1
  0.0000000000000000E+00   6   2   3   2
  0.0000000000000000E+00   6   2   3   3
  0.1064640050695585E-02   6   2   4   1
  0.1781485350326325E-01   6   2   4   2
 -0.3030323389792831E-02   6   2   4   3
  0.8201849859458580E-02   6   2   4   4
  0.0000000000000000E+00   6   2   5   1
  0.0000000000000000E+00   6   2   5   2
  0.0000000000000000E+00   6   2   5   3
  0.0000000000000000E+00   6   2   5   4
 -0.8240877603999065E-02   6   2   5   5
  0.6678430371494347E-02   6   2   6   1
  0.3779304326447891E-01   6   2   6   2
  0.0000000000000000E+00   6   3   1   1
  0.0000000000000000E+00   6   3   2   1
  0.0000000000000000E+00   6   3   2   2
  0.0000000000000000E+00   6   3   3   1
  0.0000000000000000E+00   6   3   3   2
  0.0000000000000000E+00   6   3   3   3
 -0.8922905851388282E-03   6   3   4   1
 -0.1809647392304897E-01   6   3   4   2
 -0.5495816118947398E-02   6   3   4   3
 -0.1174674204576685E-01   6   3   4   4
  0.0000000000000000E+00   6   3   5   1
  0.0000000000000000E+00   6   3   5   2
  0.0000000000000000E+00   6   3   5   3
  0.0000000000000000E+00   6   3   5   4
  0.1176308422198980E-01   6   3   5   5
 -0.5969152124414670E-02   6   3   6   1
 -0.2617348207096504E-01   6   3   6   2
  0.2476171556812429E-01   6   3   6   3
  0.1040127315940715E+00   6   4   1   1
 -0.4665635811873268E-03   6   4   2   1
  0.6321347442372706E-01   6   4   2   2
  0.2341243599490310E-03   6   4   3   1
 -0.3304046917948132E-01   6   4   3   2
  0.4034927099234918E-01   6   4   3   3
  0.2061522113807219E-03   6   4   4   1
  0.1876146021234212E-02   6   4   4   2
 -0.3771789467332246E-02   6   4   4   3
  0.2354938957841043E-01   6   4   4   4
  0.0000000000000000E+00   6   4   5   1
  0.0000000000000000E+00   6   4   5   2
  0.0000000000000000E+00   6   4   5   3
  0.0000000000000000E+00   6   4   5   4
  0.2547333579906136E-01   6   4   5   5
  0.1195667268864438E-02   6   4   6   1
  0.9131189988132293E-02   6   4   6   2
 -0.3820383400827197E-02   6   4   6   3
  0.2789509453089532E-01   6   4   6   4
  0.0000000000000000E+00   6   5   1   1
  0.0000000000000000E+00   6   5   2   1
  0.0000000000000000E+00   6   5   2   2
  0.0000000000000000E+00   6   5   3   1
  0.0000000000000000E+00   6   5   3   2
  0.0000000000000000E+00   6   5   3   3
  0.0000000000000000E+00   6   5   4   1
  0.0000000000000000E+00   6   5   4   2
  0.0000000000000000E+00   6   5   4   3
  0.0000000000000000E+00   6   5   4   4
 -0.2105606671353336E-03   6   5   5   1
 -0.1934755735161664E-02   6   5   5   2
  0.3774482414794380E-02   6   5   5   3
 -0.8837631821381499E-03   6   5   5   4
  0.0000000000000000E+00   6   5   5   5
  0.0000000000000000E+00   6   5   6   1
  0.0000000000000000E+00   6   5   6   2
  0.0000000000000000E+00   6   5   6   3
  0.0000000000000000E+00   6   5   6   4
  0.4403148867337013E-02   6   5   6   5
  0.6816950132332025E+00   6   6   1   1
 -0.3453320143484241E-02   6   6   2   1
  0.4913406125021242E+00   6   6   2   2
  0.2258451446147627E-02   6   6   3   1
 -0.1270921131794640E+00   6   6   3   2
  0.4067771864406776E+00   6   6   3   3
  0.8612905518447757E-03   6   6   4   1
  0.1830335059118712E-01   6   6   4   2
  0.2599286907336440E-02   6   6   4   3
  0.3689752814604728E+00   6   6   4   4
  0.0000000000000000E+00   6   6   5   1
  0.0000000000000000E+00   6   6   5   2
  0.0000000000000000E+00   6   6   5   3
  0.0000000000000000E+00   6   6   5   4
  0.3430853596776365E+00   6   6   5   5
  0.5363061484646408E-02   6   6   6   1
  0.2931906580269074E-01   6   6   6   2
 -0.2353556723466418E-01   6   6   6   3
  0.8597565977498711E-01   6   6   6   4
  0.0000000000000000E+00   6   6   6   5
  0.5792778321414869E+00   6   6   6   6
  0.0000000000000000E+00   7   1   1   1
  0.0000000000000000E+00   7   1   2   1
  0.0000000000000000E+00   7   1   2   2
  0.0000000000000000E+00   7   1   3   1
  0.0000000000000000E+00   7   1   3   2
  0.0000000000000000E+00   7   1   3   3
  0.0000000000000000E+00   7   1   4   1
  0.0000000000000000E+00   7   1   4   2
  0.0000000000000000E+00   7   1   4   3
  0.0000000000000000E+00   7   1   4   4
  0.3364121077605645E-03   7   1   5   1
  0.2488817707469328E-02   7   1   5   2
 -0.4826583823429479E-03   7   1   5   3
 -0.1128654327672234E-02   7   1   5   4
  0.0000000000000000E+00   7   1   5   5
  0.0000000000000000E+00   7   1   6   1
  0.0000000000000000E+00   7   1   6   2
  0.0000000000000000E+00   7   1   6   3
  0.0000000000000000E+00   7   1   6   4
 -0.1206651426213232E-02   7   1   6   5
  0.0000000000000000E+00   7   1   6   6
  0.2809615503260382E-02   7   1   7   1
  0.0000000000000000E+00   7   2   1   1
  0.0000000000000000E+00   7   2   2   1
  0.0000000000000000E+00   7   2   2   2
  0.0000000000000000E+00   7   2   3   1
  0.0000000000000000E+00   7   2   3   2
  0.0000000000000000E+00   7   2   3   3
  0.0000000000000000E+00   7   2   4   1
  0.0000000000000000E+00   7   2   4   2
  0.0000000000000000E+00   7   2   4   3
  0.0000000000000000E+00   7   2   4   4
  0.1077814394064774E-02   7   2   5   1
  0.1784062844459122E-01   7   2   5   2
 -0.3115148926290948E-02   7   2   5   3
 -0.8180280084902767E-02   7   2   5   4
  0.0000000000000000E+00   7   2   5   5
  0.0000000000000000E+00   7   2   6   1
  0.0000000000000000E+00   7   2   6   2
  0.0000000000000000E+00   7   2   6   3
  0.0000000000000000E+00   7   2   6   4
 -0.9189568180010004E-02   7   2   6   5
  0.0000000000000000E+00   7   2   6   6
  0.6670855069278432E-02   7   2   7   1
  0.3771703249699794E-01   7   2   7   2
  0.0000000000000000E+00   7   3   1   1
  0.0000000000000000E+00   7   3   2   1
  0.0000000000000000E+00   7   3   2   2
  0.0000000000000000E+00   7   3   3   1
  0.0000000000000000E+00   7   3   3   2
  0.0000000000000000E+00   7   3   3   3
  0.0000000000000000E+00   7   3   4   1
  0.0000000000000000E+00   7   3   4   2
  0.0000000000000000E+00   7   3   4   3
  0.0000000000000000E+00   7   3   4   4
 -0.9049529849570280E-03   7   3   5   1
 -0.1818129945954705E-01   7   3   5   2
 -0.5474907766536426E-02   7   3   5   3
  0.1178317769841691E-01   7   3   5   4
  0.0000000000000000E+00   7   3   5   5
  0.0000000000000000E+00   7   3   6   1
  0.0000000000000000E+00   7   3   6   2
  0.0000000000000000E+00   7   3   6   3
  0.0000000000000000E+00   7   3   6   4
  0.3862510323634066E-02   7   3   6   5
  0.0000000000000000E+00   7   3   6   6
 -0.5966220992354302E-02   7   3   7   1
 -0.2612826288883038E-01   7   3   7   2
  0.2478510308378231E-01   7   3   7   3
  0.0000000000000000E+00   7   4   1   1
  0.0000000000000000E+00   7   4   2   1
  0.0000000000000000E+00   7   4   2   2
  0.0000000000000000E+00   7   4   3   1
  0.0000000000000000E+00   7   4   3   2
  0.0000000000000000E+00   7   4   3   3
  0.0000000000000000E+00   7   4   4   1
  0.0000000000000000E+00   7   4   4   2
  0.0000000000000000E+00   7   4   4   3
  0.0000000000000000E+00   7   4   4   4
 -0.2081626468384268E-03   7   4   5   1
 -0.1854576245571404E-02   7   4   5   2
  0.3808225135206155E-02   7   4   5   3
 -0.9548415709109653E-03   7   4   5   4
  0.0000000000000000E+00   7   4   5   5
  0.0000000000000000E+00   7   4   6   1
  0.0000000000000000E+00   7   4   6   2
  0.0000000000000000E+00   7   4   6   3
  0.0000000000000000E+00   7   4   6   4
  0.4388613461054988E-02   7   4   6   5
  0.0000000000000000E+00   7   4   6   6
 -0.1192821709628372E-02   7   4   7   1
 -0.9109751587022312E-02   7   4   7   2
  0.3787223156952252E-02   7   4   7   3
  0.4374433147890624E-02   7   4   7   4
  0.1046771392571035E+00   7   5   1   1
 -0.4737186342352428E-03   7   5   2   1
  0.6352060217547785E-01   7   5   2   2
  0.2389784025901006E-03   7   5   3   1
 -0.3324247409844645E-01   7   5   3   2
  0.4057178680734297E-01   7   5   3   3
 -0.2074540120672919E-03   7   5   4   1
 -0.1874158229552540E-02   7   5   4   2
  0.3794575920030751E-02   7   5   4   3
  0.2548678414636974E-01   7   5   4   4
  0.0000000000000000E+00   7   5   5   1
  0.0000000000000000E+00   7   5   5   2
  0.0000000000000000E+00   7   5   5   3
  0.0000000000000000E+00   7   5   5   4
  0.2373408897671419E-01   7   5   5   5
 -0.1204687604054713E-02   7   5   6   1
 -0.9176124712740248E-02   7   5   6   2
  0.3845480115836087E-02   7   5   6   3
  0.1925061518637809E-01   7   5   6   4
  0.0000000000000000E+00   7   5   6   5
  0.7105620682719442E-01   7   5   6   6
  0.0000000000000000E+00   7   5   7   1
  0.0000000000000000E+00   7   5   7   2
  0.0000000000000000E+00   7   5   7   3
  0.0000000000000000E+00   7   5   7   4
  0.2816156279773202E-01   7   5   7   5
  0.0000000000000000E+00   7   6   1   1
  0.0000000000000000E+00   7   6   2   1
  0.0000000000000000E+00   7   6   2   2
  0.0000000000000000E+00   7   6   3   1
  0.0000000000000000E+00   7   6   3   2
  0.0000000000000000E+00   7   6   3   3
  0.0000000000000000E+00   7   6   4   1
  0.0000000000000000E+00   7   6   4   2
  0.0000000000000000E+00   7   6   4   3
  0.0000000000000000E+00   7   6   4   4
 -0.8722747309135809E-03   7   6   5   1
 -0.1836172880258313E-01   7   6   5   2
 -0.2557159967731597E-02   7   6   5   3
  0.1311422607953933E-01   7   6   5   4
  0.0000000000000000E+00   7   6   5   5
  0.0000000000000000E+00   7   6   6   1
  0.0000000000000000E+00   7   6   6   2
  0.0000000000000000E+00   7   6   6   3
  0.0000000000000000E+00   7   6   6   4
  0.7702098708396530E-02   7   6   6   5
  0.0000000000000000E+00   7   6   6   6
 -0.5358653015448327E-02   7   6   7   1
 -0.2926045607297199E-01   7   6   7   2
  0.2353287424384156E-01   7   6   7   3
  0.7606608377155318E-02   7   6   7   4
  0.0000000000000000E+00   7   6   7   5
  0.3167881962439600E-01   7   6   7   6
  0.6812501257605807E+00   7   7   1   1
 -0.3451315639017088E-02   7   7   2   1
  0.4910704393365399E+00   7   7   2   2
  0.2257442880223972E-02   7   7   3   1
 -0.1269508104368223E+00   7   7   3   2
  0.4066046779967391E+00   7   7   3   3
 -0.8604088213292513E-03   7   7   4   1
 -0.1829535564934885E-01   7   7   4   2
 -0.2615416972300249E-02   7   7   4   3
  0.3426747251313975E+00   7   7   4   4
  0.0000000000000000E+00   7   7   5   1
  0.0000000000000000E+00   7   7   5   2
  0.0000000000000000E+00   7   7   5   3
  0.0000000000000000E+00   7   7   5   4
  0.3692417497273099E+00   7   7   5   5
 -0.5357944380455140E-02   7   7   6   1
 -0.2928003805815028E-01   7   7   6   2
  0.2351922505844127E-01   7   7   6   3
  0.7060602313672032E-01   7   7   6   4
  0.0000000000000000E+00   7   7   6   5
  0.5155525917007994E+00   7   7   6   6
  0.0000000000000000E+00   7   7   7   1
  0.0000000000000000E+00   7   7   7   2
  0.0000000000000000E+00   7   7   7   3
  0.0000000000000000E+00   7   7   7   4
  0.8630341629941840E-01   7   7   7   5
  0.0000000000000000E+00   7   7   7   6
  0.5785432978894033E+00   7   7   7   7
 -0.5072041608204183E+00   8   1   1   1
  0.8368118617954926E-01   8   1   2   1
 -0.1579605009962628E-01   8   1   2   2
 -0.1054860004297498E+00   8   1   3   1
  0.2047652037875294E-01   8   1   3   2
 -0.2673578699281848E-01   8   1   3   3
  0.0000000000000000E+00   8   1   4   1
  0.0000000000000000E+00   8   1   4   2
  0.0000000000000000E+00   8   1   4   3
 -0.3076976625909552E-04   8   1   4   4
  0.0000000000000000E+00   8   1   5   1
  0.0000000000000000E+00   8   1   5   2
  0.0000000000000000E+00   8   1   5   3
  0.0000000000000000E+00   8   1   5   4
 -0.3086860704267308E-04   8   1   5   5
  0.0000000000000000E+00   8   1   6   1
  0.0000000000000000E+00   8   1   6   2
  0.0000000000000000E+00   8   1   6   3
 -0.2234608210463817E-04   8   1   6   4
  0.0000000000000000E+00   8   1   6   5
 -0.8154254625948851E-03   8   1   6   6
  0.0000000000000000E+00   8   1   7   1
  0.0000000000000000E+00   8   1   7   2
  0.0000000000000000E+00   8   1   7   3
  0.0000000000000000E+00   8   1   7   4
 -0.2401860945461688E-04   8   1   7   5
  0.0000000000000000E+00   8   1   7   6
 -0.8153266218105029E-03   8   1   7   7
  0.1957332782248688E+00   8   1   8   1
  0.2318496856190669E+00   8   2   1   1
 -0.2167238937994021E-01   8   2   2   1
  0.1327288983455053E-01   8   2   2   2
  0.2520529712927944E-01   8   2   3   1
 -0.2978595715285229E-01   8   2   3   2
  0.2601527537347716E-01   8   2   3   3
  0.0000000000000000E+00   8   2   4   1
  0.0000000000000000E+00   8   2   4   2
  0.0000000000000000E+00   8   2   4   3
 -0.1240492882603689E-01   8   2   4   4
  0.0000000000000000E+00   8   2   5   1
  0.0000000000000000E+00   8   2   5   2
  0.0000000000000000E+00   8   2   5   3
  0.0000000000000000E+00   8   2   5   4
 -0.1238842350893689E-01   8   2   5   5
  0.0000000000000000E+00   8   2   6   1
  0.0000000000000000E+00   8   2   6   2
  0.0000000000000000E+00   8   2   6   3
  0.3835219346106180E-02   8   2   6   4
  0.0000000000000000E+00   8   2   6   5
  0.2136301276243101E-01   8   2   6   6
  0.0000000000000000E+00   8   2   7   1
  0.0000000000000000E+00   8   2   7   2
  0.0000000000000000E+00   8   2   7   3
  0.0000000000000000E+00   8   2   7   4
  0.3907171047063660E-02   8   2   7   5
  0.0000000000000000E+00   8   2   7   6
  0.2134650744532918E-01   8   2   7   7
 -0.4081323454928465E-01   8   2   8   1
  0.3758042517384041E-01   8   2   8   2
 -0.4232162944361118E+00   8   3   1   1
  0.2885040303826645E-01   8   3   2   1
 -0.1142268473089789E+00   8   3   2   2
 -0.3346750764629782E-01   8   3   3   1
  0.6786358251633591E-01   8   3   3   2
 -0.9442327136182992E-01   8   3   3   3
  0.0000000000000000E+00   8   3   4   1
  0.0000000000000000E+00   8   3   4   2
  0.0000000000000000E+00   8   3   4   3
 -0.4584427851784491E-01   8   3   4   4
  0.0000000000000000E+00   8   3   5   1
  0.0000000000000000E+00   8   3   5   2
  0.0000000000000000E+00   8   3   5   3
  0.0000000000000000E+00   8   3   5   4
 -0.4597060534847711E-01   8   3   5   5
  0.0000000000000000E+00   8   3   6   1
  0.0000000000000000E+00   8   3   6   2
  0.0000000000000000E+00   8   3   6   3
 -0.2953903034156297E-01   8   3   6   4
  0.0000000000000000E+00   8   3   6   5
 -0.1303648425090394E+00   8   3   6   6
  0.0000000000000000E+00   8   3   7   1
  0.0000000000000000E+00   8   3   7   2
  0.0000000000000000E+00   8   3   7   3
  0.0000000000000000E+00   8   3   7   4
 -0.2971894294930705E-01   8   3   7   5
  0.0000000000000000E+00   8   3   7   6
 -0.1302385156784036E+00   8   3   7   7
  0.5406319393816156E-01   8   3   8   1
 -0.3973099531817609E-01   8   3   8   2
  0.8584940738837471E-01   8   3   8   3
  0.0000000000000000E+00   8   4   1   1
  0.0000000000000000E+00   8   4   2   1
  0.0000000000000000E+00   8   4   2   2
  0.0000000000000000E+00   8   4   3   1
  0.0000000000000000E+00   8   4   3   2
  0.0000000000000000E+00   8   4   3   3
 -0.1328499281910383E-03   8   4   4   1
 -0.8529651517829364E-02   8   4   4   2
 -0.1241984291851745E-02   8   4   4   3
 -0.5256722354618886E-02   8   4   4   4
  0.0000000000000000E+00   8   4   5   1
  0.0000000000000000E+00   8   4   5   2
  0.0000000000000000E+00   8   4   5   3
  0.0000000000000000E+00   8   4   5   4
  0.5267638120598738E-02   8   4   5   5
 -0.3858212129991747E-03   8   4   6   1
 -0.7955125344834987E-02   8   4   6   2
  0.3425496539126938E-02   8   4   6   3
 -0.2559565854800238E-02   8   4   6   4
  0.0000000000000000E+00   8   4   6   5
 -0.5870985308591963E-02   8   4   6   6
  0.0000000000000000E+00   8   4   7   1
  0.0000000000000000E+00   8   4   7   2
  0.0000000000000000E+00   8   4   7   3
  0.0000000000000000E+00   8   4   7   4
  0.2560852077291465E-02   8   4   7   5
  0.0000000000000000E+00   8   4   7   6
  0.5860069542612119E-02   8   4   7   7
  0.0000000000000000E+00   8   4   8   1
  0.0000000000000000E+00   8   4   8   2
  0.0000000000000000E+00   8   4   8   3
  0.6604792730122456E-02   8   4   8   4
  0.0000000000000000E+00   8   5   1   1
  0.0000000000000000E+00   8   5   2   1
  0.0000000000000000E+00   8   5   2   2
  0.0000000000000000E+00   8   5   3   1
  0.0000000000000000E+00   8   5   3   2
  0.0000000000000000E+00   8   5   3   3
  0.0000000000000000E+00   8   5   4   1
  0.0000000000000000E+00   8   5   4   2
  0.0000000000000000E+00   8   5   4   3
  0.0000000000000000E+00   8   5   4   4
 -0.1330140160364926E-03   8   5   5   1
 -0.8559442740723358E-02   8   5   5   2
 -0.1245540223885664E-02   8   5   5   3
  0.5273207335950365E-02   8   5   5   4
  0.0000000000000000E+00   8   5   5   5
  0.0000000000000000E+00   8   5   6   1
  0.0000000000000000E+00   8   5   6   2
  0.0000000000000000E+00   8   5   6   3
  0.0000000000000000E+00   8   5   6   4
  0.2571420664316595E-02   8   5   6   5
  0.0000000000000000E+00   8   5   6   6
 -0.3788104219062343E-03   8   5   7   1
 -0.7932072943683543E-02   8   5   7   2
  0.3422288643130621E-02   8   5   7   3
  0.2547678147042997E-02   8   5   7   4
  0.0000000000000000E+00   8   5   7   5
  0.5864042347227387E-02   8   5   7   6
  0.0000000000000000E+00   8   5   7   7
  0.0000000000000000E+00   8   5   8   1
  0.0000000000000000E+00   8   5   8   2
  0.0000000000000000E+00   8   5   8   3
  0.0000000000000000E+00   8   5   8   4
  0.6617131810187298E-02   8   5   8   5
  0.0000000000000000E+00   8   6   1   1
  0.0000000000000000E+00   8   6   2   1
  0.0000000000000000E+00   8   6   2   2
  0.0000000000000000E+00   8   6   3   1
  0.0000000000000000E+00   8   6   3   2
  0.0000000000000000E+00   8   6   3   3
  0.3018393373433739E-03   8   6   4   1
 -0.6042531514542314E-02   8   6   4   2
 -0.5090321667928756E-02   8   6   4   3
 -0.5185158918858754E-02   8   6   4   4
  0.0000000000000000E+00   8   6   5   1
  0.0000000000000000E+00   8   6   5   2
  0.0000000000000000E+00   8   6   5   3
  0.0000000000000000E+00   8   6   5   4
  0.5183839847419353E-02   8   6   5   5
  0.3155640256756649E-02   8   6   6   1
  0.2254084084073084E-02   8   6   6   2
 -0.2750314897528144E-02   8   6   6   3
  0.3031219064462388E-03   8   6   6   4
  0.0000000000000000E+00   8   6   6   5
  0.6854930136173852E-03   8   6   6   6
  0.0000000000000000E+00   8   6   7   1
  0.0000000000000000E+00   8   6   7   2
  0.0000000000000000E+00   8   6   7   3
  0.0000000000000000E+00   8   6   7   4
 -0.3156342179056965E-03   8   6   7   5
  0.0000000000000000E+00   8   6   7   6
 -0.6841739421779839E-03   8   6   7   7
  0.0000000000000000E+00   8   6   8   1
  0.0000000000000000E+00   8   6   8   2
  0.0000000000000000E+00   8   6   8   3
  0.2891614880776105E-02   8   6   8   4
  0.0000000000000000E+00   8   6   8   5
  0.8888870308998780E-02   8   6   8   6
  0.0000000000000000E+00   8   7   1   1
  0.0000000000000000E+00   8   7   2   1
  0.0000000000000000E+00   8   7   2   2
  0.0000000000000000E+00   8   7   3   1
  0.0000000000000000E+00   8   7   3   2
  0.0000000000000000E+00   8   7   3   3
  0.0000000000000000E+00   8   7   4   1
  0.0000000000000000E+00   8   7   4   2
  0.0000000000000000E+00   8   7   4   3
  0.0000000000000000E+00   8   7   4   4
  0.3088501284363146E-03   8   7   5   1
 -0.6019479113390999E-02   8   7   5   2
 -0.5093529563924654E-02   8   7   5   3
  0.5173271158640740E-02   8   7   5   4
  0.0000000000000000E+00   8   7   5   5
  0.0000000000000000E+00   8   7   6   1
  0.0000000000000000E+00   8   7   6   2
  0.0000000000000000E+00   8   7   6   3
  0.0000000000000000E+00   8   7   6   4
 -0.3100649793774223E-03   8   7   6   5
  0.0000000000000000E+00   8   7   6   6
  0.3155804344602106E-02   8   7   7   1
  0.2283875306968204E-02   8   7   7   2
 -0.2746758965496871E-02   8   7   7   3
 -0.3196068038762139E-03   8   7   7   4
  0.0000000000000000E+00   8   7   7   5
 -0.6973480435180496E-03   8   7   7   6
  0.0000000000000000E+00   8   7   7   7
  0.0000000000000000E+00   8   7   8   1
  0.0000000000000000E+00   8   7   8   2
  0.0000000000000000E+00   8   7   8   3
  0.0000000000000000E+00   8   7   8   4
  0.2896457799103635E-02   8   7   8   5
  0.0000000000000000E+00   8   7   8   6
  0.8876531228922652E-02   8   7   8   7
  0.1037062644971263E+01   8   8   1   1
 -0.6007686242093539E-01   8   8   2   1
  0.4461509269404734E+00   8   8   2   2
  0.7070215942990304E-01   8   8   3   1
 -0.1247954812530087E+00   8   8   3   2
  0.3970736536969952E+00   8   8   3   3
  0.0000000000000000E+00   8   8   4   1
  0.0000000000000000E+00   8   8   4   2
  0.0000000000000000E+00   8   8   4   3
  0.3198761322420923E+00   8   8   4   4
  0.0000000000000000E+00   8   8   5   1
  0.0000000000000000E+00   8   8   5   2
  0.0000000000000000E+00   8   8   5   3
  0.0000000000000000E+00   8   8   5   4
  0.3201239169339759E+00   8   8   5   5
  0.0000000000000000E+00   8   8   6   1
  0.0000000000000000E+00   8   8   6   2
  0.0000000000000000E+00   8   8   6   3
  0.5795401783657117E-01   8   8   6   4
  0.0000000000000000E+00   8   8   6   5
  0.4720849383051973E+00   8   8   6   6
  0.0000000000000000E+00   8   8   7   1
  0.0000000000000000E+00   8   8   7   2
  0.0000000000000000E+00   8   8   7   3
  0.0000000000000000E+00   8   8   7   4
  0.5827797009385417E-01   8   8   7   5
  0.0000000000000000E+00   8   8   7   6
  0.4718371536133133E+00   8   8   7   7
 -0.1169421473975507E+00   8   8   8   1
  0.6441896757366505E-01   8   8   8   2
 -0.1645107029427946E+00   8   8   8   3
  0.0000000000000000E+00   8   8   8   4
  0.0000000000000000E+00   8   8   8   5
  0.0000000000000000E+00   8   8   8   6
  0.0000000000000000E+00   8   8   8   7
  0.5335841391944000E+00   8   8   8   8
  0.5988546172102723E+00   9   9   1   1
 -0.5576935863051128E-02   9   9   2   1
  0.4356784025084034E+00   9   9   2   2
  0.5035054041156220E-02   9   9   3   1
 -0.9228785784560734E-01   9   9   3   2
  0.3679279114454576E+00   9   9   3   3
 -0.4354867807000436E-03   9   9   4   1
 -0.1273985469096378E-01   9   9   4   2
 -0.4727878471098043E-02   9   9   4   3
  0.3269961484376767E+00   9   9   4   4
  0.7644261153294706E-03   9   9   5   1
  0.2211706679195299E-01   9   9   5   2
  0.8142986623236656E-02   9   9   5   3
 -0.1506087147918235E-01   9   9   5   4
  0.3446267714915721E+00   9   9   5   5
 -0.2746888022287281E-02   9   9   6   1
 -0.1382334854727319E-01   9   9   6   2
  0.1243648852044974E-01   9   9   6   3
  0.5389825556144957E-01   9   9   6   4
 -0.3857887611498742E-02   9   9   6   5
  0.4521472718984391E+00   9   9   6   6
  0.4756130868438441E-02   9   9   7   1
  0.2389564699098702E-01   9   9   7   2
 -0.2155803822906603E-01   9   9   7   3
 -0.3779396222088366E-02   9   9   7   4
  0.5858218402655405E-01   9   9   7   5
 -0.2175823206275734E-01   9   9   7   6
  0.4770317841712335E+00   9   9   7   7
 -0.4572591815430349E-02   9   9   8   1
  0.1208103898357060E-01   9   9   8   2
 -0.1035529494174559E+00   9   9   8   3
  0.4097966712428510E-02   9   9   8   4
 -0.7100969193807478E-02   9   9   8   5
  0.8392300855660775E-03   9   9   8   6
 -0.1438454510716912E-02   9   9   8   7
  0.4227573521789116E+00   9   9   8   8
  0.4455708382236073E+00   9   9   9   9
 -0.2995498826586779E+00  10   9   1   1
  0.7978492742268714E-02  10   9   2   1
 -0.1193037323691584E+00  10   9   2   2
 -0.7595903127054231E-02  10   9   3   1
  0.7088847317056200E-01  10   9   3   2
 -0.9045213336656183E-01  10   9   3   3
  0.3060135906853960E-03  10   9   4   1
  0.3827471521126391E-03  10   9   4   2
 -0.3996114521636221E-02  10   9   4   3
 -0.4532884645019603E-01  10   9   4   4
 -0.5387263103520872E-03  10   9   5   1
 -0.6951586137377078E-03  10   9   5   2
  0.6940242753308921E-02  10   9   5   3
 -0.2385555922441218E-02  10   9   5   4
 -0.4272899118284389E-01  10   9   5   5
  0.2355238679335470E-02  10   9   6   1
  0.8726736945834833E-02  10   9   6   2
 -0.5087494573327625E-02  10   9   6   3
 -0.3364031652539622E-01  10   9   6   4
  0.4422147278213152E-02  10   9   6   5
 -0.1392020719119976E+00  10   9   6   6
 -0.4078253944605751E-02  10   9   7   1
 -0.1511370416652607E-01  10   9   7   2
  0.8797023829551057E-02  10   9   7   3
  0.4405973069923196E-02  10   9   7   4