 &FCI NORB= 13,NELEC=  6,MS2= 0,
  ORBSYM=1,1,1,1,1,1,1,2,2,3,3,3,3,
  ISYM=1,
 /
  0.2271548318068176E+01   1   1   1   1
 -0.1058738311290989E+00   2   1   1   1
  0.8283281811324480E-02   2   1   2   1
  0.3787394615464938E+00   2   2   1   1
  0.2328120781747225E-02   2   2   2   1
  0.4806120327648885E+00   2   2   2   2
 -0.1636678431610157E+00   3   1   1   1
  0.1141669611937069E-01   3   1   2   1
 -0.4712768419826319E-02   3   1   2   2
  0.1939524198304506E-01   3   1   3   1
  0.6942514881565967E-01   3   2   1   1
 -0.2216903702634590E-02   3   2   2   1
 -0.5902328764563448E-01   3   2   2   2
 -0.1379217278504764E-02   3   2   3   1
  0.3842838723676162E-01   3   2   3   2
  0.4427445407942010E+00   3   3   1   1
 -0.4182431015403262E-02   3   3   2   1
  0.2844307043424541E+00   3   3   2   2
 -0.2361402298335237E-02   3   3   3   1
  0.2079791059912539E-01   3   3   3   2
  0.3307510239859064E+00   3   3   3   3
 -0.1526520418249205E+00   4   1   1   1
  0.1193346259493456E-01   4   1   2   1
  0.2367637157238057E-02   4   1   2   2
  0.1625662896068213E-01   4   1   3   1
 -0.2618881833605875E-02   4   1   3   2
 -0.5650013790266581E-02   4   1   3   3
  0.1741653104352704E-01   4   1   4   1
  0.1202206944348247E+00   4   2   1   1
 -0.6574959051092732E-03   4   2   2   1
  0.2800210764283810E-01   4   2   2   2
 -0.3297391378535943E-02   4   2   3   1
  0.1829991842864093E-01   4   2   3   2
  0.3635098544287570E-01   4   2   3   3
 -0.7816298610569558E-03   4   2   4   1
  0.3163102428590964E-01   4   2   4   2
  0.1222169653528346E+00   4   3   1   1
 -0.1591854630392259E-02   4   3   2   1
  0.6323393804106033E-01   4   3   2   2
 -0.3454301324285005E-02   4   3   3   1
 -0.1790010863753553E-02   4   3   3   2
  0.3627766384636780E-01   4   3   3   3
 -0.2102565224250534E-02   4   3   4   1
  0.1416772457883367E-01   4   3   4   2
  0.2915239577250496E-01   4   3   4   3
  0.3902541213758017E+00   4   4   1   1
 -0.1190668270508847E-02   4   4   2   1
  0.2849557199743901E+00   4   4   2   2
 -0.4808113147551526E-02   4   4   3   1
  0.8363464882934185E-02   4   4   3   2
  0.2670453294109139E+00   4   4   3   3
 -0.1587636833984934E-02   4   4   4   1
  0.3582276315501057E-01   4   4   4   2
  0.3524384994902138E-01   4   4   4   3
  0.2536088593265694E+00   4   4   4   4
  0.2659189695396767E-01   5   1   1   1
  0.1081084994995737E-02   5   1   2   1
  0.1178499230292401E-01   5   1   2   2
 -0.5567144327714218E-02   5   1   3   1
 -0.1713619094629368E-02   5   1   3   2
 -0.5309004619235095E-02   5   1   3   3
  0.1965413042495953E-02   5   1   4   1
  0.4557142553738323E-02   5   1   4   2
  0.2501028495015062E-02   5   1   4   3
  0.6056137064198419E-02   5   1   4   4
  0.1420103746770747E-01   5   1   5   1
  0.4170000521201012E-01   5   2   1   1
  0.5513477789853569E-03   5   2   2   1
 -0.1136133583591606E-01   5   2   2   2
 -0.1428378956027649E-02   5   2   3   1
  0.1994178681017153E-01   5   2   3   2
  0.4381692526566757E-02   5   2   3   3
  0.8791690364510908E-03   5   2   4   1
  0.2014721665774270E-01   5   2   4   2
  0.1087205742855915E-02   5   2   4   3
  0.1264892331323455E-01   5   2   4   4
  0.4282149107844171E-02   5   2   5   1
  0.2147448167963581E-01   5   2   5   2
 -0.9814298253866970E-01   5   3   1   1
  0.3853109067692282E-02   5   3   2   1
  0.3043638374395720E-01   5   3   2   2
 -0.1244433031878062E-02   5   3   3   1
 -0.2713823169470852E-01   5   3   3   2
 -0.6143392016246014E-01   5   3   3   3
  0.5249447189168662E-02   5   3   4   1
 -0.1245400217644700E-01   5   3   4   2
  0.7617194999038068E-03   5   3   4   3
 -0.1584270226853166E-01   5   3   4   4
  0.1123883876703901E-01   5   3   5   1
 -0.2535562986557081E-02   5   3   5   2
  0.6468054542193347E-01   5   3   5   3
  0.5945390485642066E-01   5   4   1   1
  0.1140194095752767E-02   5   4   2   1
  0.6363886382291536E-01   5   4   2   2
 -0.2476908869032130E-02   5   4   3   1
 -0.1050798029086600E-01   5   4   3   2
  0.1952868472572871E-01   5   4   3   3
  0.1440420285285816E-02   5   4   4   1
  0.9910144889559961E-02   5   4   4   2
  0.1580385044186407E-01   5   4   4   3
  0.2980547301047016E-01   5   4   4   4
  0.6998483515130063E-02   5   4   5   1
  0.9392142265252923E-03   5   4   5   2
  0.1011595851741499E-01   5   4   5   3
  0.2213591988678240E-01   5   4   5   4
  0.4698133968774816E+00   5   5   1   1
 -0.4424889741170335E-02   5   5   2   1
  0.2905634505543421E+00   5   5   2   2
 -0.2959831788854811E-02   5   5   3   1
  0.1665015712710520E-01   5   5   3   2
  0.3235367602523291E+00   5   5   3   3
 -0.6421528069502826E-02   5   5   4   1
  0.3723921745783799E-01   5   5   4   2
  0.3991907487481230E-01   5   5   4   3
  0.2671981967817251E+00   5   5   4   4
 -0.5424162751518778E-02   5   5   5   1
  0.5250004411200548E-02   5   5   5   2
 -0.6463378599312063E-01   5   5   5   3
  0.2495113325533221E-01   5   5   5   4
  0.3363266202229788E+00   5   5   5   5
  0.3929497601646670E-01   6   1   1   1
 -0.3123139071723320E-02   6   1   2   1
 -0.4723603855338635E-03   6   1   2   2
 -0.4477154559077596E-02   6   1   3   1
  0.5884485420008130E-03   6   1   3   2
  0.1333819258242883E-02   6   1   3   3
 -0.4464030779267578E-02   6   1   4   1
  0.1522180928146917E-03   6   1   4   2
  0.5496745821164486E-03   6   1   4   3
  0.3552483408269599E-03   6   1   4   4
 -0.7935099328806639E-04   6   1   5   1
 -0.2915238017789524E-03   6   1   5   2
 -0.1092626527005794E-02   6   1   5   3
 -0.3678453299045911E-03   6   1   5   4
  0.1213046908577653E-02   6   1   5   5
  0.1197839240511763E-02   6   1   6   1
 -0.7498536681240287E-03   6   2   1   1
  0.8136433239454250E-03   6   2   2   1
  0.7375818531012818E-01   6   2   2   2
  0.3093933418480534E-03   6   2   3   1
 -0.2799505782687431E-01   6   2   3   2
  0.1518365249930396E-01   6   2   3   3
  0.7678601771731292E-03   6   2   4   1
 -0.9767887080233059E-03   6   2   4   2
  0.3544764869103369E-02   6   2   4   3
  0.7797087198242067E-02   6   2   4   4
  0.4692291012117050E-03   6   2   5   1
 -0.1299062949773042E-01   6   2   5   2
  0.8121886094466426E-02   6   2   5   3
  0.6134324133361437E-02   6   2   5   4
  0.1002742242687769E-01   6   2   5   5
 -0.5177158459050840E-04   6   2   6   1
  0.6265920514662832E-01   6   2   6   2
 -0.4035307096674974E-01   6   3   1   1
 -0.1012209994071937E-03   6   3   2   1
 -0.5678681706506112E-01   6   3   2   2
  0.1447471601486796E-02   6   3   3   1
  0.1222216877123978E-01   6   3   3   2
 -0.1515523155936531E-01   6   3   3   3
  0.2525573560722971E-04   6   3   4   1
 -0.6841495718183635E-02   6   3   4   2
 -0.1100147048648366E-01   6   3   4   3
 -0.1648063788306594E-01   6   3   4   4
 -0.2345004426399254E-02   6   3   5   1
  0.1301525230787387E-02   6   3   5   2
 -0.7488552167053332E-02   6   3   5   3
 -0.9106768334626317E-02   6   3   5   4
 -0.1553617019813949E-01   6   3   5   5
 -0.5689743739238922E-04   6   3   6   1
 -0.2828082634052401E-01   6   3   6   2
  0.1779223198559788E-01   6   3   6   3
 -0.4562455793133637E-01   6   4   1   1
  0.5032846169703482E-03   6   4   2   1
  0.4716133522925372E-02   6   4   2   2
  0.1017723490057717E-02   6   4   3   1
 -0.1316180922538279E-01   6   4   3   2
 -0.1829405724693000E-01   6   4   3   3
  0.5763551198300297E-03   6   4   4   1
 -0.1478558157137274E-01   6   4   4   2
  0.1020534988534922E-02   6   4   4   3
 -0.1154375598281763E-01   6   4   4   4
 -0.9061338614538999E-03   6   4   5   1
 -0.1022316588174447E-01   6   4   5   2
  0.1160862840273552E-01   6   4   5   3
  0.1720034959396100E-02   6   4   5   4
 -0.1483333265742461E-01   6   4   5   5
 -0.1176941388109326E-03   6   4   6   1
 -0.5055212005590659E-02   6   4   6   2
  0.3231740369354308E-02   6   4   6   3
  0.1440597609778650E-01   6   4   6   4
 -0.3640455355751320E-01   6   5   1   1
 -0.5073906265644771E-03   6   5   2   1
 -0.3525073514566752E-01   6   5   2   2
  0.6441547180827730E-03   6   5   3   1
  0.1190309926779549E-02   6   5   3   2
 -0.1914044245054279E-01   6   5   3   3
 -0.6603072249158340E-03   6   5   4   1
 -0.1039546924833513E-01   6   5   4   2
 -0.5996243806104355E-02   6   5   4   3
 -0.1699051596635453E-01   6   5   4   4
 -0.2293904129079196E-02   6   5   5   1
 -0.4981993937740951E-02   6   5   5   2
  0.8381599439636345E-03   6   5   5   3
 -0.5629212024970029E-02   6   5   5   4
 -0.1816763647857100E-01   6   5   5   5
  0.1561802246868127E-03   6   5   6   1
 -0.1644145900781383E-01   6   5   6   2
  0.1173155884100964E-01   6   5   6   3
  0.7472423372725925E-02   6   5   6   4
  0.1132085288802933E-01   6   5   6   5
  0.2863549937001679E+00   6   6   1   1
  0.2370000222254967E-02   6   6   2   1
  0.4569750138045550E+00   6   6   2   2
 -0.2474852450623493E-02   6   6   3   1
 -0.7744481862107350E-01   6   6   3   2
  0.2532694358982055E+00   6   6   3   3
  0.2387700453448484E-02   6   6   4   1
 -0.7715888754009081E-04   6   6   4   2
  0.5255175619381139E-01   6   6   4   3
  0.2522536685236944E+00   6   6   4   4
  0.7883926135920056E-02   6   6   5   1
 -0.3244431717468904E-01   6   6   5   2
  0.3988650840378474E-01   6   6   5   3
  0.5539088383584098E-01   6   6   5   4
  0.2575736123600307E+00   6   6   5   5
 -0.3836861594202351E-03   6   6   6   1
  0.9761338979139200E-01   6   6   6   2
 -0.6054698762266991E-01   6   6   6   3
  0.1678228416355654E-01   6   6   6   4
 -0.3043450192653374E-01   6   6   6   5
  0.4966834993294702E+00   6   6   6   6
  0.2979036326302799E-02   7   1   1   1
  0.1172519802599506E-01   7   1   2   1
  0.2152240232126025E-01   7   1   2   2
 -0.1179270391023388E-01   7   1   3   1
 -0.3853445897961699E-02   7   1   3   2
 -0.1115599311030547E-01   7   1   3   3
  0.1962468732850042E-01   7   1   4   1
  0.7911889919639340E-02   7   1   4   2
  0.3524650095712950E-02   7   1   4   3
  0.9953098982186525E-02   7   1   4   4
  0.5947626729781177E-01   7   1   5   1
  0.7891032461513035E-02   7   1   5   2
  0.2115055659898678E-01   7   1   5   3
  0.1257284024972620E-01   7   1   5   4
 -0.1130008904250290E-01   7   1   5   5
 -0.3148337301288150E-02   7   1   6   1
  0.1058768021319446E-02   7   1   6   2
 -0.3992727776548546E-02   7   1   6   3
 -0.1608813611568732E-02   7   1   6   4
 -0.4576064287136354E-02   7   1   6   5
  0.1449050212129226E-01   7   1   6   6
  0.3855264901910601E+00   7   1   7   1
  0.3266118899932342E-01   7   2   1   1
 -0.2595052826501946E-02   7   2   2   1
 -0.4651361828898734E-02   7   2   2   2
 -0.1970518111491876E-02   7   2   3   1
  0.5388517820636299E-03   7   2   3   2
  0.2928423754339965E-02   7   2   3   3
 -0.3976710604391309E-02   7   2   4   1
 -0.1894048621648043E-02   7   2   4   2
  0.5401074007154014E-03   7   2   4   3
 -0.7069868062436362E-03   7   2   4   4
 -0.3254575378127366E-02   7   2   5   1
 -0.2557368465140156E-02   7   2   5   2
 -0.4159036547051615E-02   7   2   5   3
 -0.1053339397595009E-02   7   2   5   4
  0.3951188795562991E-02   7   2   5   5
  0.8764312652865339E-03   7   2   6   1
 -0.5469426840971074E-03   7   2   6   2
  0.1027440527802299E-02   7   2   6   3
  0.5745354350382157E-03   7   2   6   4
  0.1360120035726096E-02   7   2   6   5
 -0.1913051160579172E-02   7   2   6   6
 -0.2386029066721723E-01   7   2   7   1
  0.3184588518324807E-02   7   2   7   2
 -0.3377820565868307E-01   7   3   1   1
  0.5201533113590392E-03   7   3   2   1
 -0.1083574535772046E-01   7   3   2   2
  0.4011915267786454E-02   7   3   3   1
  0.2454449570409312E-02   7   3   3   2
  0.4700444829588870E-02   7   3   3   3
  0.7185978911609213E-03   7   3   4   1
 -0.1931060707335598E-02   7   3   4   2
 -0.4321133097181559E-02   7   3   4   3
 -0.3464599328814769E-02   7   3   4   4
 -0.6490843243879251E-02   7   3   5   1
 -0.1592779307554608E-02   7   3   5   2
 -0.9463685175819031E-02   7   3   5   3
 -0.3855781992170152E-02   7   3   5   4
  0.3421019738908106E-02   7   3   5   5
 -0.2478886644575063E-03   7   3   6   1
 -0.5006746903034494E-03   7   3   6   2
  0.2474436598011871E-02   7   3   6   3
 -0.8075171094208446E-03   7   3   6   4
  0.8926492122825775E-03   7   3   6   5
 -0.9282791559941311E-02   7   3   6   6
 -0.3814435762848904E-01   7   3   7   1
  0.2086440227960899E-02   7   3   7   2
  0.6648063366108547E-02   7   3   7   3
  0.6677665433792203E-01   7   4   1   1
 -0.4464216007141019E-02   7   4   2   1
 -0.5372731627331785E-02   7   4   2   2
 -0.3584746968286654E-02   7   4   3   1
  0.4304169463394993E-02   7   4   3   2
  0.6432167722476997E-02   7   4   3   3
 -0.6890721353870487E-02   7   4   4   1
  0.1980311854665284E-02   7   4   4   2
  0.2041868999870576E-02   7   4   4   3
  0.1954495202991015E-02   7   4   4   4
 -0.5389868201032198E-02   7   4   5   1
  0.7344561623552608E-03   7   4   5   2
 -0.6864572158997601E-02   7   4   5   3
 -0.2018491453485663E-02   7   4   5   4
  0.8387164511698637E-02   7   4   5   5
  0.1476823523972705E-02   7   4   6   1
 -0.1377845343447078E-02   7   4   6   2
  0.3854726093272601E-03   7   4   6   3
 -0.1503316133447434E-02   7   4   6   4
  0.1623743939859453E-03   7   4   6   5
 -0.6355166878685845E-02   7   4   6   6
 -0.4099182308442129E-01   7   4   7   1
  0.4588744331418358E-02   7   4   7   2
  0.2943794083762666E-02   7   4   7   3
  0.8174168310824062E-02   7   4   7   4
  0.2102454860046420E+00   7   5   1   1
 -0.9169101342538252E-02   7   5   2   1
  0.1284264034513983E-01   7   5   2   2
 -0.1505210034532377E-01   7   5   3   1
  0.6796574536887392E-02   7   5   3   2
  0.1557612394119005E-01   7   5   3   3
 -0.1389047722376890E-01   7   5   4   1
  0.1203869358940515E-01   7   5   4   2
  0.1158725567979473E-01   7   5   4   3
  0.1757523193605397E-01   7   5   4   4
  0.4435549370737465E-02   7   5   5   1
  0.5927419786256985E-02   7   5   5   2
 -0.4603445164367144E-02   7   5   5   3
  0.5784562590589699E-02   7   5   5   4
  0.2130180947889150E-01   7   5   5   5
  0.3206684414732064E-02   7   5   6   1
 -0.1238390389956743E-02   7   5   6   2
 -0.3621173608827292E-02   7   5   6   3
 -0.4378065470635881E-02   7   5   6   4
 -0.2778068411529624E-02   7   5   6   5
  0.4331455092443457E-02   7   5   6   6
  0.8969168134764893E-02   7   5   7   1
  0.4266792280562390E-02   7   5   7   2
 -0.6765416537566769E-02   7   5   7   3
  0.8787720940826700E-02   7   5   7   4
  0.3079675286487347E-01   7   5   7   5
 -0.3806800756712666E-02   7   6   1   1
  0.6732819423989274E-03   7   6   2   1
  0.2061578178370195E-02   7   6   2   2
  0.5461976519698503E-03   7   6   3   1
  0.8795769851304593E-03   7   6   3   2
  0.2165184654991698E-02   7   6   3   3
  0.1039096307222451E-02   7   6   4   1
  0.1581805977841162E-02   7   6   4   2
  0.4775142241584119E-04   7   6   4   3
  0.1797986585583428E-02   7   6   4   4
  0.8350814197650143E-03   7   6   5   1
  0.1324208354652404E-02   7   6   5   2
 -0.4630814922069221E-03   7   6   5   3
  0.2167894866140518E-03   7   6   5   4
  0.1674722714945022E-02   7   6   5   5
 -0.2432508051918917E-03   7   6   6   1
  0.8681226530612687E-03   7   6   6   2
 -0.8626611841174845E-03   7   6   6   3
 -0.1414845325855512E-02   7   6   6   4
 -0.1410576800355468E-02   7   6   6   5
  0.5898601594033371E-03   7   6   6   6
  0.7482508137121983E-02   7   6   7   1
 -0.9421714512807130E-03   7   6   7   2
 -0.5995313572469067E-03   7   6   7   3
 -0.1190419489964040E-02   7   6   7   4
 -0.6794859830836521E-03   7   6   7   5
  0.4737742385155192E-03   7   6   7   6
  0.2041567800885678E+01   7   7   1   1
 -0.8475539339744234E-01   7   7   2   1
  0.3772214086604005E+00   7   7   2   2
 -0.1309736621961550E+00   7   7   3   1
  0.6417047060599985E-01   7   7   3   2
  0.4358494095668759E+00   7   7   3   3
 -0.1267339264246672E+00   7   7   4   1
  0.1169510143588603E+00   7   7   4   2
  0.1154515678103373E+00   7   7   4   3
  0.3856264069701456E+00   7   7   4   4
  0.2270521825729729E-01   7   7   5   1
  0.4275835764024485E-01   7   7   5   2
 -0.9980265608073677E-01   7   7   5   3
  0.6222404273333698E-01   7   7   5   4
  0.4768545666798250E+00   7   7   5   5
  0.3032165041700103E-01   7   7   6   1
  0.6156280120699353E-03   7   7   6   2
 -0.3876227953053044E-01   7   7   6   3
 -0.4420337800706306E-01   7   7   6   4
 -0.3662277171807093E-01   7   7   6   5
  0.2868103767087267E+00   7   7   6   6
  0.3179915878450679E-02   7   7   7   1
  0.3605477495385483E-01   7   7   7   2
 -0.3658962610331870E-01   7   7   7   3
  0.7271856440291315E-01   7   7   7   4
  0.2278374323246329E+00   7   7   7   5
 -0.4345700521116762E-02   7   7   7   6
  0.2129089204867045E+01   7   7   7   7
  0.4973921198062142E+00   8   8   1   1
 -0.2677590018231379E-02   8   8   2   1
  0.3039739805232903E+00   8   8   2   2
 -0.3165581916623410E-02   8   8   3   1
  0.3402586730933976E-01   8   8   3   2
  0.3381676593732010E+00   8   8   3   3
 -0.3359432885004610E-02   8   8   4   1
  0.5505537977093299E-01   8   8   4   2
  0.5177605190521470E-01   8   8   4   3
  0.2890427584759998E+00   8   8   4   4
  0.1046379529566941E-02   8   8   5   1
  0.2353227421646326E-01   8   8   5   2
 -0.4316894074982686E-01   8   8   5   3
  0.2728258877374878E-01   8   8   5   4
  0.3275459377322795E+00   8   8   5   5
  0.7235405914198020E-03   8   8   6   1
  0.3216836268445156E-02   8   8   6   2
 -0.1841040497399782E-01   8   8   6   3
 -0.2332483625688270E-01   8   8   6   4
 -0.2508349327052747E-01   8   8   6   5
  0.2541001143310070E+00   8   8   6   6
  0.4455979934170806E-05   8   8   7   1
 -0.6343646334471681E-04   8   8   7   2
 -0.1541061338715458E-02   8   8   7   3
  0.6494687880930487E-02   8   8   7   4
  0.2412435920805615E-01   8   8   7   5
  0.3335938719405254E-02   8   8   7   6
  0.4893065531055202E+00   8   8   7   7
  0.3992382745013800E+00   8   8   8   8
  0.1858435229071957E+00   9   8   1   1
 -0.8509447187102434E-02   9   8   2   1
  0.1035492382698871E-01   9   8   2   2
 -0.1296103233818197E-01   9   8   3   1
  0.4549529149599093E-02   9   8   3   2
  0.1428210702208321E-01   9   8   3   3
 -0.1280541693847009E-01   9   8   4   1
  0.8915755872631121E-02   9   8   4   2
  0.9554344242788795E-02   9   8   4   3
  0.1407203292181383E-01   9   8   4   4
  0.2444313717174354E-02   9   8   5   1
  0.2649842431398295E-02   9   8   5   2
 -0.7716411902177070E-02   9   8   5   3
  0.4608950403263058E-02   9   8   5   4
  0.2007031206995641E-01   9   8   5   5
  0.3026686080097086E-02   9   8   6   1
 -0.4251454448516382E-03   9   8   6   2
 -0.2876955703082093E-02   9   8   6   3
 -0.3020829794968183E-02   9   8   6   4
 -0.1694745856231600E-02   9   8   6   5
  0.4573970499974458E-02   9   8   6   6
  0.2037985351306360E-03   9   8   7   1
  0.3792752934762823E-02   9   8   7   2
 -0.3715624049016548E-02   9   8   7   3
  0.7093533411224782E-02   9   8   7   4
  0.2203459721042687E-01   9   8   7   5
 -0.7211676511176398E-03   9   8   7   6
  0.1718234380216443E+00   9   8   7   7
  0.1662866819941970E-01   9   8   8   8
  0.2445927238998313E-01   9   8   9   8
  0.2051615495355176E+01   9   9   1   1
 -0.8551558743717347E-01   9   9   2   1
  0.3740993968099642E+00   9   9   2   2
 -0.1310171502587564E+00   9   9   3   1
  0.6660859227830745E-01   9   9   3   2
  0.4362972473895388E+00   9   9   3   3
 -0.1270681520801356E+00   9   9   4   1
  0.1163815636202532E+00   9   9   4   2
  0.1180406066214015E+00   9   9   4   3
  0.3852591269704614E+00   9   9   4   4
  0.2358252287692863E-01   9   9   5   1
  0.4109927560206003E-01   9   9   5   2
 -0.9530253763317351E-01   9   9   5   3
  0.5809624466795388E-01   9   9   5   4
  0.4632594120695994E+00   9   9   5   5
  0.3104514695232651E-01   9   9   6   1
 -0.2953111964556776E-03   9   9   6   2
 -0.3858316338034282E-01   9   9   6   3
 -0.4422281394756225E-01   9   9   6   4
 -0.3605736261042358E-01   9   9   6   5
  0.2845096827072876E+00   9   9   6   6
  0.2088820650929771E-02   9   9   7   1
  0.2997326987881552E-01   9   9   7   2
 -0.3105978431405675E-01   9   9   7   3
  0.6204164626680370E-01   9   9   7   4
  0.1957825921436890E+00   9   9   7   5
 -0.2925088268074583E-02   9   9   7   6
  0.1879747341197548E+01   9   9   7   7
  0.5051150198728114E+00   9   9   8   8
  0.2028693048573941E+00   9   9   9   8
  0.2152306027328602E+01   9   9   9   9
  0.4184554457300499E+00  10  10   1   1
 -0.1579285974837759E-03  10  10   2   1
  0.3724693218015619E+00  10  10   2   2
 -0.2972502822771866E-02  10  10   3   1
 -0.7119664945002546E-02  10  10   3   2
  0.3042955234383974E+00  10  10   3   3
 -0.4438662735736726E-03  10  10   4   1
  0.3731741236823402E-01  10  10   4   2
  0.5342308797914749E-01  10  10   4   3
  0.2795283260327260E+00  10  10   4   4
  0.4859885145111920E-02  10  10   5   1
  0.6069125303247463E-02  10  10   5   2
 -0.9729312670005014E-02  10  10   5   3
  0.3943225339176754E-01  10  10   5   4
  0.2989929420377598E+00  10  10   5   5
  0.8429321981523463E-04  10  10   6   1
  0.3638163768756103E-01  10  10   6   2
 -0.3615391023029127E-01  10  10   6   3
 -0.8485337029701973E-02  10  10   6   4
 -0.2848593492411833E-01  10  10   6   5
  0.3403804819677374E+00  10  10   6   6
  0.8120445524072623E-02  10  10   7   1
 -0.1911294619225554E-02  10  10   7   2
 -0.5119677002152354E-02  10  10   7   3
  0.1036922901999721E-02  10  10   7   4
  0.1715714651469428E-01  10  10   7   5
  0.2526406776024431E-02  10  10   7   6
  0.4138472764773474E+00  10  10   7   7
  0.3203581189465505E+00  10  10   8   8
  0.1398604305428382E-01  10  10   9   8
  0.4137822548663785E+00  10  10   9   9
  0.3613327132906300E+00  10  10  10  10
 -0.1121012616684415E+00  11  10   1   1
  0.2947618527983239E-02  11  10   2   1
  0.7181355990736274E-01  11  10   2   2
  0.5463730595834174E-03  11  10   3   1
 -0.5150971052364029E-01  11  10   3   2
 -0.4636993353201399E-01  11  10   3   3
  0.3532787377982750E-02  11  10   4   1
 -0.2653232441229435E-01  11  10   4   2
  0.1106701672504581E-02  11  10   4   3
 -0.1717947633384061E-01  11  10   4   4
  0.4276979461799117E-02  11  10   5   1
 -0.2234931689321184E-01  11  10   5   2
  0.4590114253275558E-01  11  10   5   3
  0.1472198167378829E-01  11  10   5   4
 -0.3648010961912053E-01  11  10   5   5
 -0.7227041070440574E-03  11  10   6   1
  0.3325003153649769E-01  11  10   6   2
 -0.1615071498953692E-01  11  10   6   3
  0.2016022790209739E-01  11  10   6   4
 -0.1759046698297143E-02  11  10   6   5
  0.9927993906324306E-01  11  10   6   6
  0.8859371740817246E-02  11  10   7   1
 -0.1997555107557876E-02  11  10   7   2
 -0.4760038336225295E-02  11  10   7   3
 -0.7029791150081162E-02  11  10   7   4
 -0.1071102682168116E-01  11  10   7   5
 -0.1037946004610739E-02  11  10   7   6
 -0.1073919379751771E+00  11  10   7   7
 -0.5100428840925297E-01  11  10   8   8
 -0.8641244861796880E-02  11  10   9   8
 -0.1093798590487412E+00  11  10   9   9
 -0.2603294371356923E-03  11  10  10  10
  0.8579347020674313E-01  11  10  11  10
  0.3772712377850975E+00  11  11   1   1
 -0.8817919679036355E-03  11  11   2   1
  0.3634176219811190E+00  11  11   2   2
 -0.2464708494139545E-02  11  11   3   1
 -0.2330068294001081E-01  11  11   3   2
  0.2891617763255566E+00  11  11   3   3
 -0.1545712829353609E-02  11  11   4   1
  0.1679637497703775E-01  11  11   4   2
  0.4920030988134971E-01  11  11   4   3
  0.2617382789979391E+00  11  11   4   4
  0.1998031832492845E-02  11  11   5   1
 -0.1271979589747771E-01  11  11   5   2
 -0.6891343591942822E-02  11  11   5   3
  0.3786543801880682E-01  11  11   5   4
  0.2857352012348167E+00  11  11   5   5
  0.3922750464239039E-03  11  11   6   1
  0.4093989377074350E-01  11  11   6   2
 -0.3277914786848135E-01  11  11   6   3
  0.1997471759066477E-02  11  11   6   4
 -0.2116558796707499E-01  11  11   6   5
  0.3535598281228765E+00  11  11   6   6
  0.2399168303100548E-02  11  11   7   1
  0.1082648710784971E-02  11  11   7   2
 -0.3840320946920847E-02  11  11   7   3
  0.8047677742997889E-03  11  11   7   4
  0.1307489266183900E-01  11  11   7   5
  0.1005463154563666E-02  11  11   7   6
  0.3733791524878377E+00  11  11   7   7
  0.2909181026354342E+00  11  11   8   8
  0.1224163111289743E-01  11  11   9   8
  0.3731651964512359E+00  11  11   9   9
  0.3348670023664337E+00  11  11  10  10
  0.2109241675406397E-01  11  11  11  10
  0.3347044126495067E+00  11  11  11  11
  0.2443659451342733E-01  12  10   1   1
  0.3505221131104837E-03  12  10   2   1
  0.7112829359813139E-01  12  10   2   2
 -0.6152878086172237E-03  12  10   3   1
 -0.2411875495844712E-01  12  10   3   2
  0.2004177672209747E-01  12  10   3   3
  0.1721573500109096E-03  12  10   4   1
  0.2152127054021583E-02  12  10   4   2
  0.7318177590449003E-02  12  10   4   3
  0.1381241562624360E-01  12  10   4   4
  0.1108801630918932E-02  12  10   5   1
 -0.1124050978663882E-01  12  10   5   2
  0.5042014338595056E-02  12  10   5   3
  0.1003785623902201E-01  12  10   5   4
  0.1847036032201511E-01  12  10   5   5
  0.4792276263962131E-04  12  10   6   1
  0.4659753029349259E-01  12  10   6   2
 -0.2162726127753410E-01  12  10   6   3
 -0.3446563292880581E-02  12  10   6   4
 -0.1215176069789137E-01  12  10   6   5
  0.8679839064597356E-01  12  10   6   6
  0.2009015355110507E-02  12  10   7   1
 -0.1467792958759996E-03  12  10   7   2
 -0.8652396791442177E-03  12  10   7   3
 -0.1022057697125671E-02  12  10   7   4
  0.1070777602952911E-02  12  10   7   5
  0.5103529196964548E-03  12  10   7   6
  0.2491920446001875E-01  12  10   7   7
  0.1235268568116758E-01  12  10   8   8
  0.1684872948219005E-02  12  10   9   8
  0.2373303399962219E-01  12  10   9   9
  0.3146836324599545E-01  12  10  10  10
  0.2523048301833401E-01  12  10  11  10
  0.3749324940578684E-01  12  10  11  11
  0.4145291701711126E-01  12  10  12  10
  0.2649286426873204E-01  12  11   1   1
  0.1076392555167715E-02  12  11   2   1
  0.8881399701688725E-01  12  11   2   2
 -0.6032030012588670E-03  12  11   3   1
 -0.2552273985555807E-01  12  11   3   2
  0.2344983875367424E-01  12  11   3   3
  0.1181559017038272E-02  12  11   4   1
  0.5740105513475795E-02  12  11   4   2
  0.1020914175371781E-01  12  11   4   3
  0.2006594046234206E-01  12  11   4   4
  0.2795137452578190E-02  12  11   5   1
 -0.8213544586047949E-02  12  11   5   2
  0.1211274476796231E-01  12  11   5   3
  0.1236113943367775E-01  12  11   5   4
  0.2077310405992719E-01  12  11   5   5
 -0.1869503338056596E-03  12  11   6   1
  0.5294129147695215E-01  12  11   6   2
 -0.2740600998556050E-01  12  11   6   3
 -0.6296300737059245E-02  12  11   6   4
 -0.1716557236036385E-01  12  11   6   5
  0.1015851069559498E+00  12  11   6   6
  0.5473243128585059E-02  12  11   7   1
 -0.1438357135239414E-02  12  11   7   2
 -0.2313011263015666E-02  12  11   7   3
 -0.1839573570677372E-02  12  11   7   4
  0.1089640643145076E-02  12  11   7   5
  0.1234468141467483E-02  12  11   7   6
  0.2701567887598142E-01  12  11   7   7
  0.2092790621703907E-01  12  11   8   8
  0.8320112484892508E-03  12  11   9   8
  0.2616931984071067E-01  12  11   9   9
  0.4683584856517098E-01  12  11  10  10
  0.2762794757304283E-01  12  11  11  10
  0.4486803448593918E-01  12  11  11  11
  0.4476339671321855E-01  12  11  12  10
  0.5427198879661214E-01  12  11  12  11
  0.2847044320919189E+00  12  12   1   1
  0.2551914638488082E-02  12  12   2   1
  0.4673629566881307E+00  12  12   2   2
 -0.2277455710721039E-02  12  12   3   1
 -0.7995876057735024E-01  12  12   3   2
  0.2545507337926037E+00  12  12   3   3
  0.2567594125311980E-02  12  12   4   1
  0.1195976261334802E-02  12  12   4   2
  0.5200614293253883E-01  12  12   4   3
  0.2524412367472185E+00  12  12   4   4
  0.7800625913286147E-02  12  12   5   1
 -0.3191621708190495E-01  12  12   5   2
  0.4022579592209807E-01  12  12   5   3
  0.5382359513770829E-01  12  12   5   4
  0.2566773623894407E+00  12  12   5   5
 -0.4005095174885237E-03  12  12   6   1
  0.1119315125286845E+00  12  12   6   2
 -0.6807546918621182E-01  12  12   6   3
  0.1385355444173314E-01  12  12   6   4
 -0.3648040223337951E-01  12  12   6   5
  0.5060803403028500E+00  12  12   6   6
  0.1433795876968996E-01  12  12   7   1
 -0.2440579174198917E-02  12  12   7   2
 -0.9208957030162016E-02  12  12   7   3
 -0.6234682852543756E-02  12  12   7   4
  0.4342724698710873E-02  12  12   7   5
  0.1176757796957334E-02  12  12   7   6
  0.2854161780416806E+00  12  12   7   7
  0.2529378069526464E+00  12  12   8   8
  0.4555020743222740E-02  12  12   9   8
  0.2829827874058151E+00  12  12   9   9
  0.3515996503952264E+00  12  12  10  10
  0.1051516170336050E+00  12  12  11  10
  0.3626447231557490E+00  12  12  11  11
  0.9089095532945465E-01  12  12  12  10
  0.1078482686673286E+00  12  12  12  11
  0.5293180101960604E+00  12  12  12  12
 -0.1332586058614162E+00  13  10   1   1
  0.6248040324946421E-02  13  10   2   1
 -0.7682882788397278E-02  13  10   2   2
  0.9638283540467765E-02  13  10   3   1
 -0.2147338730408701E-02  13  10   3   2
 -0.8474929583139456E-02  13  10   3   3
  0.9426426485778367E-02  13  10   4   1
 -0.5420440523671377E-02  13  10   4   2
 -0.6913253575678294E-02  13  10   4   3
 -0.9255273542275724E-02  13  10   4   4
 -0.1948128110851778E-02  13  10   5   1
 -0.1400332726483032E-02  13  10   5   2
  0.4038803382885392E-02  13  10   5   3
 -0.3673277984523888E-02  13  10   5   4
 -0.1337469205464018E-01  13  10   5   5
 -0.2220817989791252E-02  13  10   6   1
  0.6968911625386100E-03  13  10   6   2
  0.1806577823132966E-02  13  10   6   3
  0.1434498146546247E-02  13  10   6   4
  0.8963423142698667E-03  13  10   6   5
 -0.4408841649648975E-02  13  10   6   6
 -0.6283878272012468E-03  13  10   7   1
 -0.2773721224716280E-02  13  10   7   2
  0.2941452402330449E-02  13  10   7   3
 -0.5026794172491718E-02  13  10   7   4
 -0.1586998439258901E-01  13  10   7   5