 &FCI NORB= 37,NELEC= 12,MS2= 0,
  ORBSYM=1,1,1,1,1,1,1,1,1,1,1,1,1,1,1,1,1,1,2,2,2,2,2,2,2,2,3,3,3,3,
 3,3,3,3,4,4,4,
  ISYM=1,
 /
  0.5356752006922314E+01   1   1   1   1
 -0.1953957595404234E-02   2   1   1   1
  0.1234623469124208E-05   2   1   2   1
  0.2499937109916575E+00   2   2   1   1
 -0.2318854376330407E-04   2   2   2   1
  0.1649763113085036E+01   2   2   2   2
 -0.5399179575662347E+00   3   1   1   1
  0.3174582814742764E-03   3   1   2   1
  0.3251161955743791E-04   3   1   2   2
  0.8822690971465687E-01   3   1   3   1
  0.4927816906121893E-02   3   2   1   1
  0.1609735376611760E-06   3   2   2   1
 -0.1329767761046246E-01   3   2   2   2
 -0.8512317800333724E-04   3   2   3   1
  0.1749941147026929E-03   3   2   3   2
  0.1280201297005719E+01   3   3   1   1
 -0.9051587784736903E-04   3   3   2   1
  0.2516018937873572E+00   3   3   2   2
 -0.2404388081255912E-01   3   3   3   1
  0.3527652691975036E-02   3   3   3   2
  0.8965371953720289E+00   3   3   3   3
 -0.1718230469992742E-01   4   1   1   1
 -0.4757982233105839E-04   4   1   2   1
 -0.3231148385598477E-02   4   1   2   2
  0.2492346795687063E-02   4   1   3   1
 -0.1002979472330496E-03   4   1   3   2
 -0.1662229399032275E-02   4   1   3   3
  0.3539975602956821E-01   4   1   4   1
 -0.4664828387411104E-02   4   2   1   1
 -0.1081027624650695E-05   4   2   2   1
  0.2838541282182100E-01   4   2   2   2
  0.1868594647381825E-04   4   2   3   1
 -0.4032680893143885E-03   4   2   3   2
 -0.4129239163186991E-02   4   2   3   3
  0.2315770222916828E-03   4   2   4   1
  0.1051748331380349E-02   4   2   4   2
  0.1595304134847386E-01   4   3   1   1
 -0.6715594381437797E-04   4   3   2   1
 -0.3913228065955740E-01   4   3   2   2
 -0.1024132386647223E-02   4   3   3   1
 -0.5243891664614263E-03   4   3   3   2
  0.2711393051712017E-02   4   3   3   3
  0.3739939672595205E-01   4   3   4   1
  0.1569341261222038E-02   4   3   4   2
  0.1664529881560497E+00   4   3   4   3
  0.1163022573361354E+01   4   4   1   1
 -0.5781995099478410E-04   4   4   2   1
  0.2660740855964638E+00   4   4   2   2
 -0.1446170543182041E-01   4   4   3   1
  0.3328525592713327E-02   4   4   3   2
  0.8321649342375019E+00   4   4   3   3
  0.9580986605383984E-03   4   4   4   1
 -0.4384067669144419E-02   4   4   4   2
  0.7436743900398023E-02   4   4   4   3
  0.8330959427590524E+00   4   4   4   4
  0.3288468240704171E-01   5   1   1   1
 -0.2189083000879657E-04   5   1   2   1
 -0.1238301213258042E-03   5   1   2   2
 -0.5423933501670473E-02   5   1   3   1
  0.9196258508401037E-06   5   1   3   2
  0.1397150367745823E-02   5   1   3   3
  0.1332160198342837E-02   5   1   4   1
  0.8678563354461886E-05   5   1   4   2
  0.1630210810997309E-02   5   1   4   3
  0.9128289688606645E-03   5   1   4   4
  0.3959590118933530E-03   5   1   5   1
 -0.2981657622616793E-02   5   2   1   1
  0.3716801762346750E-05   5   2   2   1
 -0.1118433113716431E+00   5   2   2   2
  0.5454104390319020E-05   5   2   3   1
  0.1134888513574101E-02   5   2   3   2
 -0.2924133549991066E-02   5   2   3   3
  0.8243948269113008E-04   5   2   4   1
 -0.2526034954976522E-02   5   2   4   2
  0.9497718404641661E-03   5   2   4   3
 -0.3446145632589266E-02   5   2   4   4
  0.2239863851708031E-05   5   2   5   1
  0.1226074158031631E-01   5   2   5   2
 -0.4743110590519296E-01   5   3   1   1
  0.3071510621204919E-05   5   3   2   1
  0.1675502772789311E-02   5   3   2   2
  0.1474262430994552E-02   5   3   3   1
 -0.1435931745458163E-03   5   3   3   2
 -0.2489815047324557E-01   5   3   3   3
  0.1491883010046471E-02   5   3   4   1
  0.1423493779797622E-03   5   3   4   2
  0.5078818110132707E-02   5   3   4   3
 -0.2146026772891790E-01   5   3   4   4
 -0.2692380056928018E-04   5   3   5   1
 -0.1213016343307440E-03   5   3   5   2
  0.1346628898161438E-02   5   3   5   3
  0.2895950271058212E-01   5   4   1   1
  0.4893058617219699E-06   5   4   2   1
 -0.1076737063314788E-01   5   4   2   2
 -0.5518930063877253E-03   5   4   3   1
  0.1168291510266630E-03   5   4   3   2
  0.1580342098603459E-01   5   4   3   3
 -0.1493620180204804E-02   5   4   4   1
 -0.3652977433276338E-04   5   4   4   2
 -0.2314611843039791E-02   5   4   4   3
  0.1505073096278111E-01   5   4   4   4
 -0.3005016572725185E-04   5   4   5   1
  0.5190013959896162E-03   5   4   5   2
 -0.1013517961334516E-02   5   4   5   3
  0.1412271347169328E-02   5   4   5   4
  0.1738205322069286E+00   5   5   1   1
  0.2182186643819958E-05   5   5   2   1
  0.3107335704772981E+00   5   5   2   2
 -0.1037501716950243E-03   5   5   3   1
 -0.1010536197130502E-02   5   5   3   2
  0.1724207130966784E+00   5   5   3   3
 -0.1359776149787462E-02   5   5   4   1
  0.1855242938716677E-02   5   5   4   2
 -0.1482302892093075E-01   5   5   4   3
  0.1749321179930809E+00   5   5   4   4
 -0.5133931425793008E-04   5   5   5   1
 -0.1055122835593112E-02   5   5   5   2
  0.2509146779549505E-03   5   5   5   3
 -0.2324332425585448E-02   5   5   5   4
  0.2398803252129117E+00   5   5   5   5
  0.3995837001165067E-01   6   1   1   1
 -0.2468677551828589E-04   6   1   2   1
 -0.5424375055084394E-04   6   1   2   2
 -0.6583497466097672E-02   6   1   3   1
  0.4224149101378481E-05   6   1   3   2
  0.1686276773795685E-02   6   1   3   3
  0.4393792223789360E-03   6   1   4   1
  0.2946685095093844E-05   6   1   4   2
  0.7420261797544730E-03   6   1   4   3
  0.1011655148695046E-02   6   1   4   4
  0.4310878463941706E-03   6   1   5   1
  0.9427947292636381E-06   6   1   5   2
 -0.7870609554174929E-04   6   1   5   3
  0.1080924901934211E-04   6   1   5   4
 -0.1410582475641284E-04   6   1   5   5
  0.5024489595430510E-03   6   1   6   1
  0.6833246998031559E-03   6   2   1   1
  0.6306712186109642E-06   6   2   2   1
 -0.1827716516539618E-01   6   2   2   2
  0.7010578067379249E-05   6   2   3   1
  0.2342900643283871E-03   6   2   3   2
  0.7983827154558696E-03   6   2   3   3
 -0.1320060832064854E-04   6   2   4   1
 -0.6153603098093433E-03   6   2   4   2
 -0.2095120652634191E-03   6   2   4   3
  0.8704520228833353E-03   6   2   4   4
 -0.1052444454800856E-05   6   2   5   1
  0.1799897986094937E-02   6   2   5   2
 -0.1916299541531591E-04   6   2   5   3
 -0.1874996153441842E-04   6   2   5   4
 -0.9006150396864916E-03   6   2   5   5
 -0.7265392975366711E-06   6   2   6   1
  0.3964422750384545E-03   6   2   6   2
 -0.5710165717995824E-01   6   3   1   1
  0.5611086227181567E-05   6   3   2   1
 -0.4074018921716337E-03   6   3   2   2
  0.1801962356633781E-02   6   3   3   1
 -0.1420342315276818E-03   6   3   3   2
 -0.2958744237098859E-01   6   3   3   3
  0.7412696012393905E-03   6   3   4   1
  0.1200933401078057E-03   6   3   4   2
  0.2302252408046977E-02   6   3   4   3
 -0.2605791872532819E-01   6   3   4   4
 -0.7830730171433267E-04   6   3   5   1
  0.5437069707437290E-05   6   3   5   2
  0.1449971287364450E-02   6   3   5   3
 -0.1008196308830497E-02   6   3   5   4
 -0.2859759916621128E-03   6   3   5   5
 -0.1154788398484716E-03   6   3   6   1
 -0.5712419423261482E-05   6   3   6   2
  0.1668387713171713E-02   6   3   6   3
  0.1326652221936254E-01   6   4   1   1
  0.2552815232451635E-05   6   4   2   1
 -0.8944016263036342E-02   6   4   2   2
 -0.1877999506140368E-03   6   4   3   1
  0.8091822449076299E-04   6   4   3   2
  0.8076672482269537E-02   6   4   3   3
 -0.1960212156444173E-02   6   4   4   1
 -0.3874385504234818E-04   6   4   4   2
 -0.3955694954819029E-02   6   4   4   3
  0.7482160678654550E-02   6   4   4   4
 -0.7121088720277981E-04   6   4   5   1
  0.1732626503305668E-03   6   4   5   2
 -0.6469837267055079E-03   6   4   5   3
  0.1059279567707751E-02   6   4   5   4
 -0.4275366344003300E-02   6   4   5   5
 -0.2242562964937568E-04   6   4   6   1
 -0.9259015015345101E-05   6   4   6   2
 -0.5169275455308394E-03   6   4   6   3
  0.1086942927521627E-02   6   4   6   4
  0.3357057547333499E-01   6   5   1   1
 -0.3879420451643668E-06   6   5   2   1
  0.1085355026506369E-01   6   5   2   2
 -0.1209199206670146E-03   6   5   3   1
  0.2045420085187655E-03   6   5   3   2
  0.3166988577984042E-01   6   5   3   3
 -0.1863297548026514E-03   6   5   4   1
 -0.5091503484815154E-03   6   5   4   2
 -0.9860146053653394E-03   6   5   4   3
  0.3103903727239202E-01   6   5   4   4
  0.1307792610750016E-05   6   5   5   1
 -0.9545227488378930E-03   6   5   5   2
 -0.2051149941289885E-03   6   5   5   3
 -0.8003018346922808E-03   6   5   5   4
 -0.8773254335762292E-02   6   5   5   5
  0.7811919691719845E-05   6   5   6   1
  0.2707220109373204E-03   6   5   6   2
 -0.1654161091965665E-03   6   5   6   3
  0.3776912838440594E-03   6   5   6   4
  0.1541489791650313E-01   6   5   6   5
  0.1571098011229579E+00   6   6   1   1
 -0.1618024262948674E-06   6   6   2   1
  0.1533713689182385E+00   6   6   2   2
 -0.1384257917453134E-03   6   6   3   1
  0.2609770877387694E-04   6   6   3   2
  0.1550135804446856E+00   6   6   3   3
 -0.2250065510852402E-03   6   6   4   1
 -0.6375713028974168E-04   6   6   4   2
 -0.1822679717049708E-02   6   6   4   3
  0.1543980740337057E+00   6   6   4   4
  0.9581251768941458E-06   6   6   5   1
 -0.1548062059699054E-03   6   6   5   2
 -0.1798698305707017E-03   6   6   5   3
 -0.2201823414582213E-03   6   6   5   4
  0.1441508045248981E+00   6   6   5   5
  0.8633439093514231E-05   6   6   6   1
 -0.1473311701387996E-05   6   6   6   2
 -0.2207903021064911E-03   6   6   6   3
 -0.5498181131316643E-03   6   6   6   4
 -0.1995323877163630E-03   6   6   6   5
  0.1300376802115552E+00   6   6   6   6
  0.1214660550856840E-01   7   1   1   1
 -0.4981461053862330E-05   7   1   2   1
  0.1118176181337627E-03   7   1   2   2
 -0.1976643601441552E-02   7   1   3   1
  0.5588555596659628E-05   7   1   3   2
  0.5509857678621069E-03   7   1   3   3
 -0.1386257836330113E-02   7   1   4   1
 -0.9278309044955019E-05   7   1   4   2
 -0.1387685866116011E-02   7   1   4   3
  0.2590444883296162E-03   7   1   4   4
  0.6558875274009088E-04   7   1   5   1
 -0.2764249648521693E-05   7   1   5   2
 -0.8616918089139029E-04   7   1   5   3
  0.6773815562175452E-04   7   1   5   4
  0.5223382950706551E-04   7   1   5   5
  0.1240018316382584E-03   7   1   6   1
  0.4606304849566109E-06   7   1   6   2
 -0.6449000584975669E-04   7   1   6   3
  0.7798155537467122E-04   7   1   6   4
  0.9444071228271622E-05   7   1   6   5
  0.1283088536110233E-04   7   1   6   6
  0.9444716187461450E-04   7   1   7   1
  0.5364357435627121E-02   7   2   1   1
 -0.2439919705016221E-05   7   2   2   1
  0.7787642142544672E-01   7   2   2   2
  0.2475812290711125E-05   7   2   3   1
 -0.6318292136294549E-03   7   2   3   2
  0.5441406783506725E-02   7   2   3   3
 -0.1416303287541750E-03   7   2   4   1
  0.1071589986092710E-02   7   2   4   2
 -0.1686500996761829E-02   7   2   4   3
  0.6255144378802740E-02   7   2   4   4
 -0.5337893263089134E-05   7   2   5   1
 -0.9070806648375935E-02   7   2   5   2
  0.7244504758384613E-04   7   2   5   3
 -0.6003498170994756E-03   7   2   5   4
 -0.1033198872839804E-02   7   2   5   5
 -0.2556718421110600E-05   7   2   6   1
 -0.8993116121202063E-03   7   2   6   2
 -0.3408109607098823E-04   7   2   6   3
 -0.2152376471677423E-03   7   2   6   4
  0.1599759651259112E-02   7   2   6   5
  0.2145054354993880E-03   7   2   6   6
  0.5078286196198625E-05   7   2   7   1
  0.8267176212349528E-02   7   2   7   2
 -0.1709110338524750E-01   7   3   1   1
  0.4252520637739912E-05   7   3   2   1
 -0.8466780911485863E-03   7   3   2   2
  0.5540153325687779E-03   7   3   3   1
 -0.1425095271364980E-04   7   3   3   2
 -0.8707800743171611E-02   7   3   3   3
 -0.1254413653707861E-02   7   3   4   1
 -0.2321547935270717E-04   7   3   4   2
 -0.5033380216023972E-02   7   3   4   3
 -0.7960921996164319E-02   7   3   4   4
 -0.8624258926215305E-04   7   3   5   1
  0.7037570272532382E-04   7   3   5   2
  0.2001367035840120E-03   7   3   5   3
 -0.6352910041609481E-04   7   3   5   4
 -0.2417208523024292E-03   7   3   5   5
 -0.6200208693517924E-04   7   3   6   1
  0.8807112089556047E-05   7   3   6   2
  0.3809832387677288E-03   7   3   6   3
  0.1391515527814340E-03   7   3   6   4
 -0.7380971764804205E-04   7   3   6   5
 -0.9882876333198025E-04   7   3   6   6
  0.3605939274575222E-04   7   3   7   1
 -0.5285560929896239E-04   7   3   7   2
  0.3072756301960096E-03   7   3   7   3
 -0.3011983617858734E-01   7   4   1   1
  0.3096739040234605E-05   7   4   2   1
 -0.3536723655215691E-02   7   4   2   2
  0.5643666755492478E-03   7   4   3   1
 -0.7281196876292458E-04   7   4   3   2
 -0.1754551162804057E-01   7   4   3   3
 -0.5968941525592656E-03   7   4   4   1
  0.7784167481085234E-04   7   4   4   2
 -0.1543909397848737E-02   7   4   4   3
 -0.1759804440196816E-01   7   4   4   4
 -0.5883771020889230E-04   7   4   5   1
 -0.5124350715413730E-04   7   4   5   2
  0.6391788872496699E-03   7   4   5   3
 -0.4046311653207968E-03   7   4   5   4
 -0.1813774903634303E-02   7   4   5   5
 -0.4937065202116283E-04   7   4   6   1
 -0.2089442614674912E-05   7   4   6   2
  0.8401432341507832E-03   7   4   6   3
  0.9573596740461080E-05   7   4   6   4
 -0.1941204389773566E-05   7   4   6   5
 -0.4414686675201972E-03   7   4   6   6
  0.1113933369055486E-04   7   4   7   1
  0.1837811684331258E-04   7   4   7   2
  0.3204095803312785E-03   7   4   7   3
  0.6924229980382841E-03   7   4   7   4
 -0.1900952539223421E-01   7   5   1   1
 -0.1182292766527055E-05   7   5   2   1
 -0.1123557979520575E+00   7   5   2   2
 -0.1609994648032525E-04   7   5   3   1
  0.7576674997406326E-03   7   5   3   2
 -0.1923385620649640E-01   7   5   3   3
  0.5334819795187547E-03   7   5   4   1
 -0.1545440019093573E-02   7   5   4   2
  0.6072615734032153E-02   7   5   4   3
 -0.2115081836751847E-01   7   5   4   4
  0.2308970870112346E-04   7   5   5   1
  0.6833871499534353E-03   7   5   5   2
 -0.1716505357088503E-03   7   5   5   3
  0.9167260312922146E-03   7   5   5   4
 -0.5472047942220873E-01   7   5   5   5
  0.1014256323269723E-04   7   5   6   1
  0.7730469213516444E-03   7   5   6   2
  0.6043687011505084E-04   7   5   6   3
  0.1587250153673334E-02   7   5   6   4
  0.2946061651874673E-02   7   5   6   5
 -0.9086623630737657E-02   7   5   6   6
 -0.1897366982649151E-04   7   5   7   1
  0.1204351746677088E-02   7   5   7   2
  0.7526902307280776E-04   7   5   7   3
  0.9644783637060830E-03   7   5   7   4
  0.3470778515283779E-01   7   5   7   5
  0.2737571696615058E-01   7   6   1   1
 -0.6895011151057218E-06   7   6   2   1
  0.5366583000757866E-02   7   6   2   2
 -0.3411976882056181E-04   7   6   3   1
  0.1373458583867149E-03   7   6   3   2
  0.2687688904692269E-01   7   6   3   3
  0.2883954398497183E-03   7   6   4   1
 -0.2078403746510887E-03   7   6   4   2
  0.2831388928370992E-02   7   6   4   3
  0.2618518465024761E-01   7   6   4   4
  0.1532053156773217E-04   7   6   5   1
 -0.4354801722074902E-04   7   6   5   2
 -0.1276869748437930E-03   7   6   5   3
  0.1434305445172623E-03   7   6   5   4
 -0.1329221979294399E-02   7   6   5   5
  0.1010598342116953E-04   7   6   6   1
  0.6733605801737055E-04   7   6   6   2
  0.3043917640964400E-06   7   6   6   3
  0.8873366854074986E-03   7   6   6   4
  0.1175628870747781E-01   7   6   6   5
  0.2487639739458952E-02   7   6   6   6
 -0.1004137618827684E-04   7   6   7   1
  0.2127264547773284E-03   7   6   7   2
 -0.1284460452320203E-04   7   6   7   3
 -0.4788349539680504E-04   7   6   7   4
 -0.2030960140932658E-02   7   6   7   5
  0.1548665917528003E-01   7   6   7   6
  0.1453902842351823E+00   7   7   1   1
  0.1379406076884131E-05   7   7   2   1
  0.2543859023866994E+00   7   7   2   2
 -0.2600854426381313E-04   7   7   3   1
 -0.8664099841293658E-03   7   7   3   2
  0.1450563059776090E+00   7   7   3   3
 -0.6539702407905600E-03   7   7   4   1
  0.1738297562858671E-02   7   7   4   2
 -0.8236856573771548E-02   7   7   4   3
  0.1469142116392837E+00   7   7   4   4
 -0.2595608331398586E-04   7   7   5   1
 -0.5721712596132146E-03   7   7   5   2
  0.2034077725046792E-03   7   7   5   3
 -0.1170346944792009E-02   7   7   5   4
  0.1954368763334924E+00   7   7   5   5
 -0.8198550307847094E-05   7   7   6   1
 -0.8783432775724598E-03   7   7   6   2
 -0.1270466481186686E-03   7   7   6   3
 -0.2740389516561616E-02   7   7   6   4
 -0.8129270674491821E-02   7   7   6   5
  0.1314039460657201E+00   7   7   6   6
  0.2419398291261983E-04   7   7   7   1
 -0.1505975605881275E-02   7   7   7   2
 -0.1184678339837472E-03   7   7   7   3
 -0.1372509349643545E-02   7   7   7   4
 -0.3819595925713365E-01   7   7   7   5
 -0.2923730636325169E-02   7   7   7   6
  0.1715193197403126E+00   7   7   7   7
  0.5025458158569059E-01   8   1   1   1
 -0.4364879700190943E-04   8   1   2   1
 -0.7545679471467813E-03   8   1   2   2
 -0.8390402203635149E-02   8   1   3   1
 -0.1550240229274464E-04   8   1   3   2
  0.1908272218924327E-02   8   1   3   3
  0.8178311281155062E-02   8   1   4   1
  0.5278796869835811E-04   8   1   4   2
  0.8903280140932175E-02   8   1   4   3
  0.1568606213736609E-02   8   1   4   4
  0.8697792502185961E-03   8   1   5   1
  0.1841361207421591E-04   8   1   5   2
  0.2091788641083135E-03   8   1   5   3
 -0.3018886678108805E-03   8   1   5   4
 -0.3080326312675942E-03   8   1   5   5
  0.7751411610096898E-03   8   1   6   1
 -0.3749936713111702E-05   8   1   6   2
  0.4613410715796108E-06   8   1   6   3
 -0.4462167372037725E-03   8   1   6   4
 -0.3219730450632668E-04   8   1   6   5
 -0.4101006029978105E-04   8   1   6   6
 -0.1289677770894947E-03   8   1   7   1
 -0.3298638953129149E-04   8   1   7   2
 -0.3490967190196503E-03   8   1   7   3
 -0.1939230754103337E-03   8   1   7   4
  0.1261969691471897E-03   8   1   7   5
  0.6983550682878429E-04   8   1   7   6
 -0.1507429564505501E-03   8   1   7   7
  0.2802976390610116E-02   8   1   8   1
  0.5400357822984395E-02   8   2   1   1
  0.1691870407463323E-05   8   2   2   1
 -0.5416216542977675E-01   8   2   2   2
  0.1483113560835902E-04   8   2   3   1
  0.8350907271838907E-03   8   2   3   2
  0.5708352327544053E-02   8   2   3   3
 -0.1054425418144763E-03   8   2   4   1
 -0.2434076174408728E-02   8   2   4   2
 -0.1524345402849383E-02   8   2   4   3
  0.6324513259275765E-02   8   2   4   4
 -0.5404503745956913E-05   8   2   5   1
  0.4541104244204217E-02   8   2   5   2
 -0.6504428113993143E-04   8   2   5   3
 -0.3107479780838708E-03   8   2   5   4
 -0.4431970818585789E-02   8   2   5   5
 -0.2836246249245968E-05   8   2   6   1
  0.1470331325327100E-02   8   2   6   2
 -0.5020329822524048E-04   8   2   6   3
 -0.1170635896758528E-03   8   2   6   4
  0.1782674258922928E-02   8   2   6   5
  0.7376772554303306E-04   8   2   6   6
  0.4099671587750990E-05   8   2   7   1
 -0.7058032319437659E-03   8   2   7   2
  0.1239788435754134E-04   8   2   7   3
  0.9295913741602115E-05   8   2   7   4
  0.4017896284257466E-02   8   2   7   5
  0.3617244847383772E-03   8   2   7   6
 -0.4662267398124182E-02   8   2   7   7
 -0.2583128365756325E-04   8   2   8   1
  0.6630430136284990E-02   8   2   8   2
 -0.7115091497693010E-01   8   3   1   1
 -0.4735701970797185E-05   8   3   2   1
  0.2333467783426125E-02   8   3   2   2
  0.2236725442397117E-02   8   3   3   1
 -0.2647932945226668E-03   8   3   3   2
 -0.3673333718710090E-01   8   3   3   3
  0.7861015030532669E-02   8   3   4   1
  0.3013212337448697E-03   8   3   4   2
  0.2893624163082284E-01   8   3   4   3
 -0.2963879028546303E-01   8   3   4   4
  0.1940183786767954E-03   8   3   5   1
 -0.8714656413796209E-04   8   3   5   2
  0.2842440052078799E-02   8   3   5   3
 -0.2269468160991044E-02   8   3   5   4
  0.2904611836701844E-03   8   3   5   5
 -0.1953039489519014E-04   8   3   6   1
 -0.1134364780469841E-04   8   3   6   2
  0.2572971721847335E-02   8   3   6   3
 -0.1957970918173653E-02   8   3   6   4
 -0.3473918401242805E-03   8   3   6   5
 -0.2794135807312030E-03   8   3   6   6
 -0.3417478805540135E-03   8   3   7   1
  0.4589001946916210E-04   8   3   7   2
 -0.4022843238210222E-03   8   3   7   3
  0.6245260443367223E-03   8   3   7   4
 -0.3078227876686318E-03   8   3   7   5
 -0.8683630702236488E-04   8   3   7   6
  0.3923030107327555E-03   8   3   7   7
  0.1636444027119321E-02   8   3   8   1
 -0.4499876364843299E-04   8   3   8   2
  0.8589471088454950E-02   8   3   8   3
  0.1778867764112845E+00   8   4   1   1
 -0.9710120780890826E-05   8   4   2   1
 -0.2265337982855591E-01   8   4   2   2
 -0.3351755146994579E-02   8   4   3   1
  0.5656950135935736E-03   8   4   3   2
  0.1022417641226487E+00   8   4   3   3
 -0.1854933430264813E-02   8   4   4   1
 -0.3575245299089584E-03   8   4   4   2
  0.1370845063240090E-02   8   4   4   3
  0.9935454895522035E-01   8   4   4   4
  0.1223338359080952E-03   8   4   5   1
  0.5887719418732469E-03   8   4   5   2
 -0.4589033196831793E-02   8   4   5   3
  0.4692566905172576E-02   8   4   5   4
 -0.7257045338300364E-02   8   4   5   5
  0.1969909443432227E-03   8   4   6   1
  0.1216868249056283E-04   8   4   6   2
 -0.5213053818132123E-02   8   4   6   3
  0.2952048862078482E-02   8   4   6   4
  0.1542764184615703E-02   8   4   6   5
  0.5861806132153315E-03   8   4   6   6
  0.1386409254309374E-03   8   4   7   1
 -0.6242643327205579E-03   8   4   7   2
 -0.1266723157386653E-02   8   4   7   3
 -0.2844536282189435E-02   8   4   7   4
  0.4028564551245564E-02   8   4   7   5
  0.1874295633554192E-02   8   4   7   6
 -0.4863598783242892E-02   8   4   7   7
 -0.1261831091256488E-03   8   4   8   1
 -0.1376434117918523E-03   8   4   8   2
 -0.7685184460059136E-02   8   4   8   3
  0.2187972882678959E-01   8   4   8   4
  0.4490071273338108E-01   8   5   1   1
  0.2490620836522548E-06   8   5   2   1
  0.2255790509378127E-01   8   5   2   2
 -0.2771794742810175E-03   8   5   3   1
  0.3271434395424845E-03   8   5   3   2
  0.3981800698796357E-01   8   5   3   3
 -0.1040698519415860E-02   8   5   4   1
 -0.1097990349182182E-02   8   5   4   2
 -0.7568863434341953E-02   8   5   4   3
  0.4006819534647649E-01   8   5   4   4
 -0.2511352627100589E-04   8   5   5   1
 -0.2170586512758347E-02   8   5   5   2
 -0.3599756906973364E-03   8   5   5   3
 -0.2057367569212128E-02   8   5   5   4
 -0.8905576161727199E-02   8   5   5   5
  0.2957381065218923E-05   8   5   6   1
  0.6511442239785916E-03   8   5   6   2
 -0.5050088103046510E-03   8   5   6   3
 -0.5543193495188352E-03   8   5   6   4
  0.1666805390598708E-01   8   5   6   5
 -0.3175454176804228E-03   8   5   6   6
  0.4465803050442488E-04   8   5   7   1
  0.3805899701945343E-02   8   5   7   2
 -0.1819499743253381E-03   8   5   7   3
  0.6816313644751647E-04   8   5   7   4
  0.8326336554079694E-02   8   5   7   5
  0.4501243532111157E-02   8   5   7   6
 -0.1054267062939972E-01   8   5   7   7
 -0.2166217154525636E-03   8   5   8   1
  0.4413167106519024E-02   8   5   8   2
 -0.8444251808019457E-03   8   5   8   3
  0.6879218768793246E-03   8   5   8   4
  0.3109230878122426E-01   8   5   8   5
  0.2854056821575059E-01   8   6   1   1
  0.1489844132689973E-05   8   6   2   1
  0.5963826275630799E-01   8   6   2   2
 -0.2218756300470624E-03   8   6   3   1
 -0.1595743625394250E-03   8   6   3   2
  0.2491260628748723E-01   8   6   3   3
 -0.1290836762232044E-02   8   6   4   1
  0.1318484272371923E-03   8   6   4   2
 -0.1021806815907711E-01   8   6   4   3
  0.2537099059994592E-01   8   6   4   4
 -0.4032552171624623E-04   8   6   5   1
 -0.3338084976478883E-03   8   6   5   2
 -0.1769512191875746E-03   8   6   5   3
 -0.1164693717520451E-02   8   6   5   4
  0.4024218495823340E-01   8   6   5   5
 -0.7057885198179280E-05   8   6   6   1
 -0.8083911696936206E-04   8   6   6   2
 -0.4252966694216999E-03   8   6   6   3
 -0.1970736620043617E-02   8   6   6   4
 -0.4139893547082977E-02   8   6   6   5
  0.1089567935444437E-01   8   6   6   6
  0.5237995731804262E-04   8   6   7   1
  0.2225984512388406E-03   8   6   7   2
 -0.1129248182134670E-03   8   6   7   3
 -0.8454786446011906E-03   8   6   7   4
 -0.1485631273923881E-01   8   6   7   5
 -0.3779775398454359E-02   8   6   7   6
  0.2620166294176878E-01   8   6   7   7
 -0.2807829256268977E-03   8   6   8   1
 -0.2890689497612326E-03   8   6   8   2
 -0.6229557659581139E-03   8   6   8   3
 -0.2324492480286274E-02   8   6   8   4
 -0.1412513603732011E-02   8   6   8   5
  0.1600959220614984E-01   8   6   8   6
 -0.1469827004648487E-01   8   7   1   1
  0.1027460151409610E-05   8   7   2   1
  0.2951307969492262E-01   8   7   2   2
  0.7940553918166114E-04   8   7   3   1
 -0.3741712586877059E-03   8   7   3   2
 -0.1253330944858040E-01   8   7   3   3
 -0.2096336515706514E-03   8   7   4   1
  0.9007406316941228E-03   8   7   4   2
 -0.2106150279513473E-02   8   7   4   3
 -0.1231414436984956E-01   8   7   4   4
 -0.1412713043318954E-04   8   7   5   1
  0.7340033632791969E-03   8   7   5   2
  0.1670947484288589E-03   8   7   5   3
  0.3442389611309870E-03   8   7   5   4
  0.2335877162785341E-01   8   7   5   5
 -0.1007370163653510E-04   8   7   6   1
 -0.5492449242324177E-03   8   7   6   2
  0.1327491413161269E-03   8   7   6   3
 -0.8043495501389125E-03   8   7   6   4
 -0.9683684031105495E-02   8   7   6   5
  0.2704433241805783E-02   8   7   6   6
  0.5750263557638717E-05   8   7   7   1
 -0.2029965906215338E-02   8   7   7   2
  0.9274142488039511E-04   8   7   7   3
 -0.6240893226253685E-03   8   7   7   4
 -0.1455412889404622E-01   8   7   7   5
 -0.4448921099368319E-02   8   7   7   6
  0.1963596868548790E-01   8   7   7   7
 -0.5663259966791047E-04   8   7   8   1
 -0.3389013898983891E-02   8   7   8   2
  0.2301876162199416E-03   8   7   8   3
 -0.2231342007404404E-02   8   7   8   4
 -0.1656451569025162E-01   8   7   8   5
  0.7817921440353419E-02   8   7   8   6
  0.1511719727364522E-01   8   7   8   7
  0.2583426286962853E+00   8   8   1   1
  0.1180930010604071E-05   8   8   2   1
  0.3167783025945121E+00   8   8   2   2
 -0.1011312609256964E-02   8   8   3   1
 -0.3640658590243041E-03   8   8   3   2
  0.2379879531540346E+00   8   8   3   3
 -0.2805257774019719E-02   8   8   4   1
  0.2681974510117925E-03   8   8   4   2
 -0.2190959366676551E-01   8   8   4   3
  0.2412767718461350E+00   8   8   4   4
 -0.5310759956948493E-04   8   8   5   1
 -0.1983623020055604E-02   8   8   5   2
 -0.1185557174242735E-02   8   8   5   3
 -0.2410941115268006E-02   8   8   5   4
  0.2227667637499505E+00   8   8   5   5
  0.2428784413645649E-04   8   8   6   1
 -0.2732258328422886E-03   8   8   6   2
 -0.1856427181959011E-02   8   8   6   3
 -0.3448470314076441E-02   8   8   6   4
  0.2222923555556127E-02   8   8   6   5
  0.1463149712102563E+00   8   8   6   6
  0.1255740049927231E-03   8   8   7   1
  0.1675373896973406E-02   8   8   7   2
 -0.5459235429801784E-03   8   8   7   3
 -0.2627666313440401E-02   8   8   7   4
 -0.5013153464262188E-01   8   8   7   5
  0.7468204345481677E-02   8   8   7   6
  0.1819454527530884E+00   8   8   7   7
 -0.5636802003444038E-03   8   8   8   1
 -0.7153320470238882E-03   8   8   8   2
 -0.2261633132123325E-02   8   8   8   3
 -0.1891042619856152E-02   8   8   8   4
  0.1943005770925668E-02   8   8   8   5
  0.3832119460290197E-01   8   8   8   6
  0.1668830866763184E-01   8   8   8   7
  0.2345519913465297E+00   8   8   8   8
  0.0000000000000000E+00   9   1   1   1
  0.0000000000000000E+00   9   1   2   1
  0.0000000000000000E+00   9   1   2   2
  0.0000000000000000E+00   9   1   3   1
  0.0000000000000000E+00   9   1   3   2
  0.0000000000000000E+00   9   1   3   3
  0.0000000000000000E+00   9   1   4   1
  0.0000000000000000E+00   9   1   4   2
  0.0000000000000000E+00   9   1   4   3
  0.0000000000000000E+00   9   1   4   4
  0.0000000000000000E+00   9   1   5   1
  0.0000000000000000E+00   9   1   5   2
  0.0000000000000000E+00   9   1   5   3
  0.0000000000000000E+00   9   1   5   4
  0.0000000000000000E+00   9   1   5   5
  0.0000000000000000E+00   9   1   6   1
  0.0000000000000000E+00   9   1   6   2
  0.0000000000000000E+00   9   1   6   3
  0.0000000000000000E+00   9   1   6   4
  0.0000000000000000E+00   9   1   6   5
  0.0000000000000000E+00   9   1   6   6
  0.0000000000000000E+00   9   1   7   1
  0.0000000000000000E+00   9   1   7   2
  0.0000000000000000E+00   9   1   7   3
  0.0000000000000000E+00   9   1   7   4
  0.0000000000000000E+00   9   1   7   5
  0.0000000000000000E+00   9   1   7   6
  0.0000000000000000E+00   9   1   7   7
  0.0000000000000000E+00   9   1   8   1
  0.0000000000000000E+00   9   1   8   2
  0.0000000000000000E+00   9   1   8   3
  0.0000000000000000E+00   9   1   8   4
  0.0000000000000000E+00   9   1   8   5
  0.0000000000000000E+00   9   1   8   6
  0.0000000000000000E+00   9   1   8   7
  0.0000000000000000E+00   9   1   8   8
  0.6954025582546996E-07   9   1   9   1
  0.0000000000000000E+00   9   2   1   1
  0.0000000000000000E+00   9   2   2   1
  0.0000000000000000E+00   9   2   2   2
  0.0000000000000000E+00   9   2   3   1
  0.0000000000000000E+00   9   2   3   2
  0.0000000000000000E+00   9   2   3   3
  0.0000000000000000E+00   9   2   4   1
  0.0000000000000000E+00   9   2   4   2
  0.0000000000000000E+00   9   2   4   3
  0.0000000000000000E+00   9   2   4   4
  0.0000000000000000E+00   9   2   5   1
  0.0000000000000000E+00   9   2   5   2
  0.0000000000000000E+00   9   2   5   3
  0.0000000000000000E+00   9   2   5   4
  0.0000000000000000E+00   9   2   5   5
  0.0000000000000000E+00   9   2   6   1
  0.0000000000000000E+00   9   2   6   2
  0.0000000000000000E+00   9   2   6   3
  0.0000000000000000E+00   9   2   6   4
  0.0000000000000000E+00   9   2   6   5
  0.0000000000000000E+00   9   2   6   6
  0.0000000000000000E+00   9   2   7   1
  0.0000000000000000E+00   9   2   7   2
  0.0000000000000000E+00   9   2   7   3
  0.0000000000000000E+00   9   2   7   4